
  ___ ___ ___ _ _ _  
 |   |   |_  | | | | 
 | | | | | . | | | | 
 |__ |  _|___|_____|  1.2.0
 |___|_|             

User:   user@ubuntu
Date:   Mon Feb 26 07:25:15 2018
Arch:   x86_64
Pid:    1570
Python: 3.6.3
gpaw:   /usr/lib/python3/dist-packages/gpaw
_gpaw:  /usr/lib/python3/dist-packages/_gpaw.cpython-36m-x86_64-linux-gnu.so
ase:    /home/user/.local/lib/python3.6/site-packages/ase (version 3.15.0)
numpy:  /home/user/.local/lib/python3.6/site-packages/numpy (version 1.14.0)
scipy:  /home/user/.local/lib/python3.6/site-packages/scipy (version 1.0.0)
units:  Angstrom and eV
cores:  1

Input parameters:
  h: 0.18
  xc: PBE

System changes: positions, numbers, cell, pbc, initial_charges, initial_magmoms 

Initialize ...

C-setup:
  name: Carbon
  id: 4aa54d4b901d75f77cc0ea3eec22967b
  Z: 6
  valence: 4
  core: 2
  charge: 0.0
  file: /usr/share/gpaw-setups/C.PBE.gz
  cutoffs: 0.64(comp), 1.14(filt), 1.14(core), lmax=2
  valence states:
                energy  radius
    2s(2.00)   -13.751   0.635
    2p(2.00)    -5.284   0.635
    *s          13.461   0.635
    *p          21.927   0.635
    *d           0.000   0.635

  Using partial waves for C as LCAO basis

Reference energy: -8221.024924

Spin-paired calculation

Occupation numbers:
  Fermi-Dirac: width=0.1000 eV

Convergence criteria:
  Maximum total energy change: 0.0005 eV / electron
  Maximum integral of absolute density change: 0.0001 electrons
  Maximum integral of absolute eigenstate change: 4e-08 eV^2
  Maximum number of iterations: 333

Symmetries present (total): 24

  ( 1  0  0)  ( 1  0  0)  ( 1  0  0)  ( 1  0  0)  ( 0  1  0)  ( 0  1  0)
  ( 0  1  0)  ( 0  0  1)  ( 0  0 -1)  ( 0 -1  0)  ( 1  0  0)  ( 0  0  1)
  ( 0  0  1)  ( 0  1  0)  ( 0 -1  0)  ( 0  0 -1)  ( 0  0  1)  ( 1  0  0)

  ( 0  1  0)  ( 0  1  0)  ( 0  0  1)  ( 0  0  1)  ( 0  0  1)  ( 0  0  1)
  ( 0  0 -1)  (-1  0  0)  ( 1  0  0)  ( 0  1  0)  ( 0 -1  0)  (-1  0  0)
  (-1  0  0)  ( 0  0 -1)  ( 0  1  0)  ( 1  0  0)  (-1  0  0)  ( 0 -1  0)

  ( 0  0 -1)  ( 0  0 -1)  ( 0  0 -1)  ( 0  0 -1)  ( 0 -1  0)  ( 0 -1  0)
  ( 1  0  0)  ( 0  1  0)  ( 0 -1  0)  (-1  0  0)  ( 1  0  0)  ( 0  0  1)
  ( 0 -1  0)  (-1  0  0)  ( 1  0  0)  ( 0  1  0)  ( 0  0 -1)  (-1  0  0)

  ( 0 -1  0)  ( 0 -1  0)  (-1  0  0)  (-1  0  0)  (-1  0  0)  (-1  0  0)
  ( 0  0 -1)  (-1  0  0)  ( 0  1  0)  ( 0  0  1)  ( 0  0 -1)  ( 0 -1  0)
  ( 1  0  0)  ( 0  0  1)  ( 0  0 -1)  ( 0 -1  0)  ( 0  1  0)  ( 0  0  1)

1 k-point (Gamma)
1 k-point in the irreducible part of the Brillouin zone
       k-points in crystal coordinates                weights
   0:     0.00000000    0.00000000    0.00000000          1/1

Wave functions: Uniform real-space grid
  Kinetic energy operator: 6*3+1=19 point O(h^6) finite-difference Laplacian
  Eigensolver: None  MatrixOperator buffer_size: default value or 
                              see value of nblock in input file
Diagonalizer layout: Serial LAPACKOrthonormalizer layout: Serial LAPACK 

Davidson(niter=1, smin=None, normalize=True) 

Densities:
  Coarse grid: 20*20*20 grid
  Fine grid: 40*40*40 grid
  Total Charge: 0.000000 

Density mixing:
  Method: separate
  Backend: pulay
  Linear mixing parameter: 0.05
  Mixing with 5 old densities
  Damping of long wave oscillations: 50 

Hamiltonian:
  XC and Coulomb potentials evaluated on a 40*40*40 grid
  Using the PBE Exchange-Correlation functional
  Interpolation: tri-quintic (5. degree polynomial)
  Poisson solver: Jacobi solver with 4 multi-grid levels
    Coarsest grid: 5 x 5 x 5 points
    Stencil: 6*3+1=19 point O(h^6) finite-difference Laplacian
    Tolerance: 2.000000e-10
    Max iterations: 1000 

Memory estimate:
  Process memory now: 465.52 MiB
  Calculator: 18.79 MiB
    Density: 8.89 MiB
      Arrays: 1.59 MiB
      Localized functions: 6.70 MiB
      Mixer: 0.61 MiB
    Hamiltonian: 2.75 MiB
      Arrays: 1.04 MiB
      XC: 0.00 MiB
      Poisson: 1.18 MiB
      vbar: 0.53 MiB
    Wavefunctions: 7.14 MiB
      Arrays psit_nG: 1.95 MiB
      Eigensolver: 2.34 MiB
      Projections: 0.03 MiB
      Projectors: 0.86 MiB
      Overlap op: 1.96 MiB

Total number of cores used: 1

Number of atoms: 8
Number of atomic orbitals: 32
Number of bands in calculation: 32
Bands to converge: occupied states only
Number of valence electrons: 32

... initialized

Initializing position-dependent things.

Density initialized from atomic densities
Creating initial wave functions:
  32 bands from LCAO basis set

   .--------.  
  /|        |  
 * | C      |  
 |C|    C   |  
 | .-C---C--.  
 |/ C  C   /   
 C--------*    

Positions:
   0 C      0.000000    0.000000    0.000000
   1 C      0.892500    0.892500    0.892500
   2 C      0.000000    1.785000    1.785000
   3 C      0.892500    2.677500    2.677500
   4 C      1.785000    0.000000    1.785000
   5 C      2.677500    0.892500    2.677500
   6 C      1.785000    1.785000    0.000000
   7 C      2.677500    2.677500    0.892500

Unit cell:
           periodic     x           y           z      points  spacing
  1. axis:    yes    3.570000    0.000000    0.000000    20     0.1785
  2. axis:    yes    0.000000    3.570000    0.000000    20     0.1785
  3. axis:    yes    0.000000    0.000000    3.570000    20     0.1785

                     log10-error:    total        iterations:
           time      wfs    density  energy       fermi  poisson
iter:   1  07:25:20  +1.83   +inf   -59.913523    0      16     
iter:   2  07:25:20  +0.97   +inf   -60.510393    0             
iter:   3  07:25:20  +0.07   +inf   -60.623092    0             
iter:   4  07:25:21  -0.11  -0.74   -60.177067    0      7      
iter:   5  07:25:22  +0.42  -0.77   -57.261032    16     11     
iter:   6  07:25:22  +0.27  -1.46   -57.228106    3      7      
iter:   7  07:25:23  -0.38  -1.60   -57.242157    1      3      
iter:   8  07:25:24  -0.77  -1.58   -57.276328    1      6      
iter:   9  07:25:24  -0.93  -1.54   -57.288065    0      8      
iter:  10  07:25:25  -1.24  -1.53   -57.311030    1      7      
iter:  11  07:25:25  -0.96  -1.48   -57.175800    3      9      
iter:  12  07:25:26  -1.20  -2.08   -57.180222    1      5      
iter:  13  07:25:27  -1.45  -2.05   -57.185735    2      7      
iter:  14  07:25:27  -1.37  -1.99   -57.176850    1      8      
iter:  15  07:25:28  -2.00  -2.49   -57.177951    0      4      
iter:  16  07:25:29  -2.32  -2.42   -57.176830    1      6      
iter:  17  07:25:29  -2.48  -2.48   -57.177795    1      5      
iter:  18  07:25:30  -2.69  -2.42   -57.176520    1      6      
iter:  19  07:25:31  -2.90  -2.87   -57.176601    0      6      
iter:  20  07:25:31  -3.28  -3.08   -57.176606    0      4      
iter:  21  07:25:32  -3.83  -3.29   -57.176710    0      4      
iter:  22  07:25:32  -3.92  -3.45   -57.176521    0      3      
iter:  23  07:25:33  -4.51  -3.51   -57.176564    0      3      
iter:  24  07:25:34  -4.64  -3.54   -57.176748    0      4      
iter:  25  07:25:34  -4.87  -3.77   -57.176669    0      3      
iter:  26  07:25:35  -5.30  -3.82   -57.176728    0      2      
iter:  27  07:25:35  -5.31  -3.87   -57.176802    0      3      
iter:  28  07:25:36  -5.27  -4.13   -57.176913    0      2      
iter:  29  07:25:37  -5.69  -4.15   -57.176521    0      2      
iter:  30  07:25:37  -5.78  -4.29   -57.176704    0      2      
iter:  31  07:25:38  -5.89  -4.44   -57.176671    0      1      
iter:  32  07:25:38  -6.29  -4.47   -57.176677    0      1      
iter:  33  07:25:39  -6.42  -4.50   -57.176741    0      2      
iter:  34  07:25:39  -6.66  -4.86   -57.176779    0      1      
iter:  35  07:25:40  -6.94  -4.91   -57.176821    0      1      
iter:  36  07:25:41  -7.08  -4.97   -57.176787    0      1      
iter:  37  07:25:41  -7.41  -5.06   -57.176719    0      1      

Converged after 37 iterations.

Energy contributions relative to reference atoms: (reference = -8221.024924)

Kinetic:        +87.616662
Potential:      -65.210531
External:        +0.000000
XC:             -80.358096
Entropy (-ST):   -0.000000
Local:           +0.775245
--------------------------
Free energy:    -57.176719
Extrapolated:   -57.176719

Fermi level: 14.70536

 Band  Eigenvalues  Occupancy
    0     -9.15186    2.00000
    1     -0.40746    2.00000
    2     -0.40746    2.00000
    3     -0.40745    2.00000
    4     -0.40745    2.00000
    5     -0.40745    2.00000
    6     -0.40741    2.00000
    7      6.07960    2.00000
    8      6.07960    2.00000
    9      6.07960    2.00000
   10      6.07963    2.00000
   11      6.07963    2.00000
   12      6.07963    2.00000
   13     12.45586    2.00000
   14     12.45586    2.00000
   15     12.45586    2.00000
   16     17.02716    0.00000
   17     17.02716    0.00000
   18     17.02717    0.00000
   19     17.02717    0.00000
   20     17.02717    0.00000
   21     17.02717    0.00000
   22     17.93809    0.00000
   23     17.93809    0.00000
   24     17.93809    0.00000
   25     25.73746    0.00000
   26     29.28068    0.00000
   27     29.28068    0.00000
   28     29.28068    0.00000
   29     29.28071    0.00000
   30     29.28071    0.00000
   31     29.28071    0.00000

Timing:                              incl.     excl.
-----------------------------------------------------------
Hamiltonian:                         0.608     0.000   0.0% |
 Atomic:                             0.362     0.002   0.0% |
  XC Correction:                     0.361     0.361   0.2% |
 Calculate atomic Hamiltonians:      0.004     0.004   0.0% |
 Communicate:                        0.000     0.000   0.0% |
 Hartree integrate/restrict:         0.001     0.001   0.0% |
 Initialize Hamiltonian:             0.002     0.002   0.0% |
 Poisson:                            0.186     0.186   0.1% |
 XC 3D grid:                         0.053     0.053   0.0% |
 vbar:                               0.000     0.000   0.0% |
LCAO initialization:                 3.219     0.028   0.0% |
 LCAO eigensolver:                   0.985     0.000   0.0% |
  Calculate projections:             0.000     0.000   0.0% |
  DenseAtomicCorrection:             0.001     0.001   0.0% |
  Distribute overlap matrix:         0.000     0.000   0.0% |
  Orbital Layouts:                   0.000     0.000   0.0% |
  Potential matrix:                  0.984     0.984   0.4% |
 LCAO to grid:                       0.372     0.372   0.2% |
 Set positions (LCAO WFS):           1.834     0.000   0.0% |
  Basic WFS set positions:           0.007     0.007   0.0% |
  Basis functions set positions:     0.000     0.000   0.0% |
  TCI: Calculate S, T, P:            1.827     1.827   0.8% |
SCF-cycle:                          21.215     0.031   0.0% |
 Davidson:                           3.715     1.891   0.8% |
  calc. matrices:                    1.214     0.897   0.4% |
   Apply hamiltonian:                0.317     0.317   0.1% |
  diagonalize:                       0.053     0.053   0.0% |
  rotate_psi:                        0.558     0.558   0.2% |
 Density:                            0.663     0.001   0.0% |
  Atomic density matrices:           0.102     0.102   0.0% |
  Mix:                               0.179     0.179   0.1% |
  Multipole moments:                 0.012     0.012   0.0% |
  Pseudo density:                    0.370     0.022   0.0% |
   Symmetrize density:               0.348     0.348   0.2% |
 Hamiltonian:                       15.675     0.003   0.0% |
  Atomic:                           12.052     0.053   0.0% |
   XC Correction:                   11.999    11.999   5.2% |-|
  Calculate atomic Hamiltonians:     0.122     0.122   0.1% |
  Communicate:                       0.000     0.000   0.0% |
  Hartree integrate/restrict:        0.040     0.040   0.0% |
  Poisson:                           1.682     1.682   0.7% |
  XC 3D grid:                        1.768     1.768   0.8% |
  vbar:                              0.008     0.008   0.0% |
 Orthonormalize:                     0.026     0.000   0.0% |
  Band Layouts:                      0.000     0.000   0.0% |
   Inverse Cholesky:                 0.000     0.000   0.0% |
  calc_s_matrix:                     0.004     0.004   0.0% |
  projections:                       0.015     0.015   0.0% |
  rotate_psi:                        0.008     0.008   0.0% |
 Subspace diag:                      1.104     0.002   0.0% |
  Band Layouts:                      0.009     0.001   0.0% |
   Diagonalize:                      0.008     0.008   0.0% |
   Distribute results:               0.000     0.000   0.0% |
  calc_h_matrix:                     0.541     0.221   0.1% |
   Apply hamiltonian:                0.320     0.320   0.1% |
  rotate_psi:                        0.552     0.552   0.2% |
Set symmetry:                        0.000     0.000   0.0% |
Other:                             204.528   204.528  89.1% |-----------------------------------|
-----------------------------------------------------------
Total:                                       229.570 100.0%

Memory usage: 465.52 MiB
Date: Mon Feb 26 07:29:05 2018
