
  ___ ___ ___ _ _ _  
 |   |   |_  | | | | 
 | | | | | . | | | | 
 |__ |  _|___|_____|  1.2.0
 |___|_|             

User:   user@ubuntu
Date:   Mon Feb 26 07:31:08 2018
Arch:   x86_64
Pid:    1592
Python: 3.6.3
gpaw:   /usr/lib/python3/dist-packages/gpaw
_gpaw:  /usr/lib/python3/dist-packages/_gpaw.cpython-36m-x86_64-linux-gnu.so
ase:    /home/user/.local/lib/python3.6/site-packages/ase (version 3.15.0)
numpy:  /home/user/.local/lib/python3.6/site-packages/numpy (version 1.14.0)
scipy:  /home/user/.local/lib/python3.6/site-packages/scipy (version 1.0.0)
units:  Angstrom and eV
cores:  1

Input parameters:
  h: 0.18
  xc: PBE

System changes: positions, numbers, cell, pbc, initial_charges, initial_magmoms 

Initialize ...

C-setup:
  name: Carbon
  id: 4aa54d4b901d75f77cc0ea3eec22967b
  Z: 6
  valence: 4
  core: 2
  charge: 0.0
  file: /usr/share/gpaw-setups/C.PBE.gz
  cutoffs: 0.64(comp), 1.14(filt), 1.14(core), lmax=2
  valence states:
                energy  radius
    2s(2.00)   -13.751   0.635
    2p(2.00)    -5.284   0.635
    *s          13.461   0.635
    *p          21.927   0.635
    *d           0.000   0.635

  Using partial waves for C as LCAO basis

H-setup:
  name: Hydrogen
  id: d65de229564ff8ea4db303e23b6d1ecf
  Z: 1
  valence: 1
  core: 0
  charge: 0.0
  file: /usr/share/gpaw-setups/H.PBE.gz
  cutoffs: 0.48(comp), 0.85(filt), 0.53(core), lmax=2
  valence states:
                energy  radius
    1s(1.00)    -6.494   0.476
    *s          20.717   0.476
    *p           0.000   0.476

  Using partial waves for H as LCAO basis

Reference energy: -6240.709666

Spin-paired calculation

Occupation numbers:
  Fermi-Dirac: width=0.0000 eV

Convergence criteria:
  Maximum total energy change: 0.0005 eV / electron
  Maximum integral of absolute density change: 0.0001 electrons
  Maximum integral of absolute eigenstate change: 4e-08 eV^2
  Maximum number of iterations: 333

Symmetries present (total): 1

  ( 1  0  0)
  ( 0  1  0)
  ( 0  0  1)

1 k-point (Gamma)
1 k-point in the irreducible part of the Brillouin zone
       k-points in crystal coordinates                weights
   0:     0.00000000    0.00000000    0.00000000          1/1

Wave functions: Uniform real-space grid
  Kinetic energy operator: 6*3+1=19 point O(h^6) finite-difference Laplacian
  Eigensolver: None  MatrixOperator buffer_size: default value or 
                              see value of nblock in input file
Diagonalizer layout: Serial LAPACKOrthonormalizer layout: Serial LAPACK 

Davidson(niter=1, smin=None, normalize=True) 

Densities:
  Coarse grid: 64*68*40 grid
  Fine grid: 128*136*80 grid
  Total Charge: 0.000000 

Density mixing:
  Method: separate
  Backend: pulay
  Linear mixing parameter: 0.25
  Mixing with 3 old densities
  No damping of long wave oscillations 

Hamiltonian:
  XC and Coulomb potentials evaluated on a 128*136*80 grid
  Using the PBE Exchange-Correlation functional
  Interpolation: tri-quintic (5. degree polynomial)
  Poisson solver: Jacobi solver with 4 multi-grid levels
    Coarsest grid: 16 x 17 x 10 points
    Stencil: 6*3+1=19 point O(h^6) finite-difference Laplacian
    Tolerance: 2.000000e-10
    Max iterations: 1000 

Memory estimate:
  Process memory now: 478.14 MiB
  Calculator: 216.24 MiB
    Density: 48.50 MiB
      Arrays: 33.51 MiB
      Localized functions: 7.45 MiB
      Mixer: 7.54 MiB
    Hamiltonian: 47.54 MiB
      Arrays: 21.92 MiB
      XC: 0.00 MiB
      Poisson: 25.03 MiB
      vbar: 0.59 MiB
    Wavefunctions: 120.20 MiB
      Arrays psit_nG: 37.68 MiB
      Eigensolver: 44.03 MiB
      Projections: 0.02 MiB
      Projectors: 0.79 MiB
      Overlap op: 37.69 MiB

Total number of cores used: 1

Number of atoms: 12
Number of atomic orbitals: 30
Number of bands in calculation: 30
Bands to converge: occupied states only
Number of valence electrons: 30

... initialized

Initializing position-dependent things.

Density initialized from atomic densities
Creating initial wave functions:
  30 bands from LCAO basis set

        .---------------------------.  
       /|                           |  
      / |                           |  
     /  |                           |  
    /   |                           |  
   /    |                           |  
  /     |                           |  
 *      |     H    CH    H          |  
 |      |      CC    CC             |  
 |      .---H----HC----H------------.  
 |     /                           /   
 |    /                           /    
 |   /                           /     
 |  /                           /      
 | /                           /       
 |/                           /        
 *---------------------------*         

Positions:
   0 C      5.649787    7.377608    3.500000
   1 C      6.858107    6.679984    3.500000
   2 C      6.858107    5.284736    3.500000
   3 C      5.649787    4.587112    3.500000
   4 C      4.441467    5.284736    3.500000
   5 C      4.441467    6.679984    3.500000
   6 H      5.649787    8.464720    3.500000
   7 H      7.799574    7.223540    3.500000
   8 H      7.799574    4.741180    3.500000
   9 H      5.649787    3.500000    3.500000
  10 H      3.500000    4.741180    3.500000
  11 H      3.500000    7.223540    3.500000

Unit cell:
           periodic     x           y           z      points  spacing
  1. axis:    no    11.299574    0.000000    0.000000    64     0.1766
  2. axis:    no     0.000000   11.964720    0.000000    68     0.1760
  3. axis:    no     0.000000    0.000000    7.000000    40     0.1750

                     log10-error:    total        iterations:
           time      wfs    density  energy       fermi  poisson
iter:   1  07:31:19  +2.04   +inf   -81.288902    0      28     
iter:   2  07:31:21  +1.34   +inf   -82.853481    0             
iter:   3  07:31:23  +0.44   +inf   -83.110518    0             
iter:   4  07:31:32  +0.20  -0.65   -78.117167    0      21     
iter:   5  07:31:41  +0.36  -0.84   -76.066091    0      22     
iter:   6  07:31:49  +0.86  -1.30   -76.058575    0      18     
iter:   7  07:31:56  -0.10  -1.54   -75.954270    0      17     
iter:   8  07:32:03  -0.39  -2.09   -75.956752    0      11     
iter:   9  07:32:08  -0.92  -2.25   -75.959589    0      6      
iter:  10  07:32:13  -1.10  -2.41   -75.960699    0      8      
iter:  11  07:32:19  -1.71  -2.60   -75.961636    0      6      
iter:  12  07:32:24  -1.81  -2.90   -75.961586    0      5      
iter:  13  07:32:29  -2.28  -3.33   -75.961086    0      4      
iter:  14  07:32:33  -2.24  -3.46   -75.962004    0      3      
iter:  15  07:32:38  -2.80  -3.57   -75.962456    0      3      
iter:  16  07:32:43  -2.81  -3.70   -75.962557    0      4      
iter:  17  07:32:47  -3.32  -3.91   -75.961879    0      2      
iter:  18  07:32:51  -3.33  -4.03   -75.962398    0      3      
iter:  19  07:32:56  -3.80  -4.08   -75.962141    0      2      
iter:  20  07:33:00  -3.85  -4.36   -75.961747    0      2      
iter:  21  07:33:04  -4.26  -4.75   -75.962183    0      1      
iter:  22  07:33:08  -4.35  -4.76   -75.962370    0      1      
iter:  23  07:33:12  -4.70  -4.82   -75.962390    0      1      
iter:  24  07:33:16  -4.86  -4.85   -75.962277    0      2      
iter:  25  07:33:21  -5.12  -5.05   -75.961972    0      1      
iter:  26  07:33:25  -5.35  -5.24   -75.962044    0      1      
iter:  27  07:33:29  -5.56  -5.31   -75.962050    0      1      
iter:  28  07:33:33  -5.78  -5.58   -75.962075    0      1      
iter:  29  07:33:37  -5.98  -5.67   -75.962107    0      1      
iter:  30  07:33:41  -6.21  -5.87   -75.962068    0      1      
iter:  31  07:33:46  -6.39  -6.10   -75.962060    0      1      
iter:  32  07:33:50  -6.63  -6.18   -75.962031    0      1      
iter:  33  07:33:54  -6.80  -6.39   -75.962014    0      1      
iter:  34  07:33:58  -7.04  -6.34   -75.962010    0      1      
iter:  35  07:34:03  -7.21  -6.34   -75.962007    0      1      
iter:  36  07:34:07  -7.44  -6.19   -75.962006    0      1      

Converged after 36 iterations.

Dipole moment: (0.000000, 0.000000, -0.000000) |e|*Ang

Energy contributions relative to reference atoms: (reference = -6240.709666)

Kinetic:        +73.886513
Potential:      -81.543531
External:        +0.000000
XC:             -68.771057
Entropy (-ST):   +0.000000
Local:           +0.466069
--------------------------
Free energy:    -75.962006
Extrapolated:   -75.962006

Fermi level: -3.81172

 Band  Eigenvalues  Occupancy
    0    -21.25710    2.00000
    1    -18.46858    2.00000
    2    -18.46847    2.00000
    3    -14.85200    2.00000
    4    -14.85185    2.00000
    5    -12.92119    2.00000
    6    -11.21530    2.00000
    7    -10.91767    2.00000
    8    -10.24422    2.00000
    9    -10.24403    2.00000
   10     -9.11189    2.00000
   11     -8.24813    2.00000
   12     -8.24705    2.00000
   13     -6.37534    2.00000
   14     -6.37533    2.00000
   15     -1.24811    0.00000
   16     -1.24797    0.00000
   17      0.03463    0.00000
   18      0.72146    0.00000
   19      0.80163    0.00000
   20      1.27604    0.00000
   21      1.55394    0.00000
   22      2.21200    0.00000
   23      2.28001    0.00000
   24      2.54147    0.00000
   25      2.54558    0.00000
   26      3.82543    0.00000
   27      3.93407    0.00000
   28      4.21442    0.00000
   29      4.69857    0.00000

Timing:                              incl.     excl.
-----------------------------------------------------------
Hamiltonian:                         7.786     0.000   0.0% |
 Atomic:                             0.420     0.002   0.0% |
  XC Correction:                     0.418     0.418   0.1% |
 Calculate atomic Hamiltonians:      0.003     0.003   0.0% |
 Communicate:                        0.000     0.000   0.0% |
 Hartree integrate/restrict:         0.020     0.020   0.0% |
 Initialize Hamiltonian:             0.003     0.003   0.0% |
 Poisson:                            6.276     6.276   1.0% |
 XC 3D grid:                         1.058     1.058   0.2% |
 vbar:                               0.005     0.005   0.0% |
LCAO initialization:                 0.357     0.047   0.0% |
 LCAO eigensolver:                   0.060     0.000   0.0% |
  Calculate projections:             0.000     0.000   0.0% |
  DenseAtomicCorrection:             0.001     0.001   0.0% |
  Distribute overlap matrix:         0.000     0.000   0.0% |
  Orbital Layouts:                   0.000     0.000   0.0% |
  Potential matrix:                  0.059     0.059   0.0% |
 LCAO to grid:                       0.192     0.192   0.0% |
 Set positions (LCAO WFS):           0.057     0.000   0.0% |
  Basic WFS set positions:           0.001     0.001   0.0% |
  Basis functions set positions:     0.000     0.000   0.0% |
  TCI: Calculate S, T, P:            0.057     0.057   0.0% |
SCF-cycle:                         170.606     0.335   0.1% |
 Davidson:                          54.785    10.179   1.6% ||
  calc. matrices:                   28.068    23.977   3.7% ||
   Apply hamiltonian:                4.092     4.092   0.6% |
  diagonalize:                       0.052     0.052   0.0% |
  rotate_psi:                       16.486    16.486   2.6% ||
 Density:                            1.575     0.001   0.0% |
  Atomic density matrices:           0.055     0.055   0.0% |
  Mix:                               1.197     1.197   0.2% |
  Multipole moments:                 0.015     0.015   0.0% |
  Pseudo density:                    0.306     0.306   0.0% |
   Symmetrize density:               0.001     0.001   0.0% |
 Hamiltonian:                       86.174     0.004   0.0% |
  Atomic:                           14.034     0.070   0.0% |
   XC Correction:                   13.963    13.963   2.2% ||
  Calculate atomic Hamiltonians:     0.117     0.117   0.0% |
  Communicate:                       0.000     0.000   0.0% |
  Hartree integrate/restrict:        0.689     0.689   0.1% |
  Poisson:                          34.554    34.554   5.4% |-|
  XC 3D grid:                       36.613    36.613   5.7% |-|
  vbar:                              0.164     0.164   0.0% |
 Orthonormalize:                     0.403     0.000   0.0% |
  Band Layouts:                      0.000     0.000   0.0% |
   Inverse Cholesky:                 0.000     0.000   0.0% |
  calc_s_matrix:                     0.111     0.111   0.0% |
  projections:                       0.012     0.012   0.0% |
  rotate_psi:                        0.279     0.279   0.0% |
 Subspace diag:                     27.334     0.003   0.0% |
  Band Layouts:                      0.011     0.001   0.0% |
   Diagonalize:                      0.010     0.010   0.0% |
   Distribute results:               0.001     0.001   0.0% |
  calc_h_matrix:                    10.941     6.754   1.1% |
   Apply hamiltonian:                4.186     4.186   0.7% |
  rotate_psi:                       16.380    16.380   2.6% ||
Set symmetry:                        0.000     0.000   0.0% |
Other:                             460.883   460.883  72.1% |----------------------------|
-----------------------------------------------------------
Total:                                       639.632 100.0%

Memory usage: 478.24 MiB
Date: Mon Feb 26 07:41:47 2018
