
  ___ ___ ___ _ _ _  
 |   |   |_  | | | | 
 | | | | | . | | | | 
 |__ |  _|___|_____|  1.2.0
 |___|_|             

User:   user@ubuntu
Date:   Mon Feb 26 07:24:13 2018
Arch:   x86_64
Pid:    1570
Python: 3.6.3
gpaw:   /usr/lib/python3/dist-packages/gpaw
_gpaw:  /usr/lib/python3/dist-packages/_gpaw.cpython-36m-x86_64-linux-gnu.so
ase:    /home/user/.local/lib/python3.6/site-packages/ase (version 3.15.0)
numpy:  /home/user/.local/lib/python3.6/site-packages/numpy (version 1.14.0)
scipy:  /home/user/.local/lib/python3.6/site-packages/scipy (version 1.0.0)
units:  Angstrom and eV
cores:  1

Input parameters:
  h: 0.18
  xc: PBE

System changes: positions, numbers, cell, pbc, initial_charges, initial_magmoms 

Initialize ...

C-setup:
  name: Carbon
  id: 4aa54d4b901d75f77cc0ea3eec22967b
  Z: 6
  valence: 4
  core: 2
  charge: 0.0
  file: /usr/share/gpaw-setups/C.PBE.gz
  cutoffs: 0.64(comp), 1.14(filt), 1.14(core), lmax=2
  valence states:
                energy  radius
    2s(2.00)   -13.751   0.635
    2p(2.00)    -5.284   0.635
    *s          13.461   0.635
    *p          21.927   0.635
    *d           0.000   0.635

  Using partial waves for C as LCAO basis

Reference energy: -16442.049848

Spin-paired calculation

Occupation numbers:
  Fermi-Dirac: width=0.1000 eV

Convergence criteria:
  Maximum total energy change: 0.0005 eV / electron
  Maximum integral of absolute density change: 0.0001 electrons
  Maximum integral of absolute eigenstate change: 4e-08 eV^2
  Maximum number of iterations: 333

Symmetries present (total): 4

  ( 1  0  0)  ( 1  0  0)  (-1  0  0)  (-1  0  0)
  ( 0  1  0)  ( 0 -1  0)  ( 0  1  0)  ( 0 -1  0)
  ( 0  0  1)  ( 0  0  1)  ( 0  0  1)  ( 0  0  1)

1 k-point (Gamma)
1 k-point in the irreducible part of the Brillouin zone
       k-points in crystal coordinates                weights
   0:     0.00000000    0.00000000    0.00000000          1/1

Wave functions: Uniform real-space grid
  Kinetic energy operator: 6*3+1=19 point O(h^6) finite-difference Laplacian
  Eigensolver: None  MatrixOperator buffer_size: default value or 
                              see value of nblock in input file
Diagonalizer layout: Serial LAPACKOrthonormalizer layout: Serial LAPACK 

Davidson(niter=1, smin=None, normalize=True) 

Densities:
  Coarse grid: 32*28*20 grid
  Fine grid: 64*56*40 grid
  Total Charge: 0.000000 

Density mixing:
  Method: separate
  Backend: pulay
  Linear mixing parameter: 0.05
  Mixing with 5 old densities
  Damping of long wave oscillations: 50 

Hamiltonian:
  XC and Coulomb potentials evaluated on a 64*56*40 grid
  Using the PBE Exchange-Correlation functional
  Interpolation: tri-quintic (5. degree polynomial)
  Poisson solver: Jacobi solver with 4 multi-grid levels
    Coarsest grid: 8 x 7 x 5 points
    Stencil: 6*3+1=19 point O(h^6) finite-difference Laplacian
    Tolerance: 2.000000e-10
    Max iterations: 1000 

Memory estimate:
  Process memory now: 461.24 MiB
  Calculator: 53.22 MiB
    Density: 19.31 MiB
      Arrays: 3.46 MiB
      Localized functions: 14.55 MiB
      Mixer: 1.30 MiB
    Hamiltonian: 6.00 MiB
      Arrays: 2.26 MiB
      XC: 0.00 MiB
      Poisson: 2.58 MiB
      vbar: 1.16 MiB
    Wavefunctions: 27.91 MiB
      Arrays psit_nG: 8.31 MiB
      Eigensolver: 9.28 MiB
      Projections: 0.10 MiB
      Projectors: 1.88 MiB
      Overlap op: 8.34 MiB

Total number of cores used: 1

Number of atoms: 16
Number of atomic orbitals: 64
Number of bands in calculation: 64
Bands to converge: occupied states only
Number of valence electrons: 64

... initialized

Initializing position-dependent things.

Density initialized from atomic densities
Creating initial wave functions:
  64 bands from LCAO basis set

    .-------------.  
   /|             |  
  / |             |  
 *C |CC  C  CC C  |  
 |  C--C--C---C---.  
 C /C   C   C    /   
 |/             /    
 *-------------*     

Positions:
   0 C      0.000000    0.000000    1.677000
   1 C      1.420859    0.000000    1.677000
   2 C      2.841718    0.000000    1.677000
   3 C      4.262577    0.000000    1.677000
   4 C      0.710430    1.230500    1.677000
   5 C      2.131289    1.230500    1.677000
   6 C      3.552148    1.230500    1.677000
   7 C      4.973007    1.230500    1.677000
   8 C      0.000000    2.461000    1.677000
   9 C      1.420859    2.461000    1.677000
  10 C      2.841718    2.461000    1.677000
  11 C      4.262577    2.461000    1.677000
  12 C      0.710430    3.691500    1.677000
  13 C      2.131289    3.691500    1.677000
  14 C      3.552148    3.691500    1.677000
  15 C      4.973007    3.691500    1.677000

Unit cell:
           periodic     x           y           z      points  spacing
  1. axis:    yes    5.683436    0.000000    0.000000    32     0.1776
  2. axis:    yes    0.000000    4.922000    0.000000    28     0.1758
  3. axis:    no     0.000000    0.000000    3.354000    20     0.1677

                     log10-error:    total        iterations:
           time      wfs    density  energy       fermi  poisson
iter:   1  07:24:17  +2.58   +inf   -46.512904    2      17     
iter:   2  07:24:18  +1.73   +inf   -54.421658    3             
iter:   3  07:24:19  +0.89   +inf   -55.832790    2             
iter:   4  07:24:21  +0.50  -0.85   -54.462176    7      10     
iter:   5  07:24:23  +0.52  -0.88   -43.880837    30     14     
iter:   6  07:24:25  +0.52  -1.71   -44.124306    4      8      
iter:   7  07:24:27  -0.04  -1.72   -44.458917    28     11     
iter:   8  07:24:28  -0.04  -1.84   -44.475610    6      10     
iter:   9  07:24:30  -1.05  -2.89   -44.492096    3      6      
iter:  10  07:24:32  -1.00  -2.95   -44.494276    2      3      
iter:  11  07:24:34  -1.75  -2.97   -44.498922    2      4      
iter:  12  07:24:35  -1.63  -2.94   -44.491814    3      7      
iter:  13  07:24:37  -2.02  -2.51   -44.494166    2      4      
iter:  14  07:24:39  -2.20  -2.51   -44.499767    3      7      
iter:  15  07:24:41  -2.52  -3.06   -44.495177    2      6      
iter:  16  07:24:43  -2.81  -2.96   -44.492509    2      5      
iter:  17  07:24:44  -3.37  -3.45   -44.494560    2      3      
iter:  18  07:24:46  -3.37  -3.36   -44.492451    2      5      
iter:  19  07:24:48  -3.66  -3.54   -44.492943    1      3      
iter:  20  07:24:50  -3.89  -3.51   -44.493532    1      3      
iter:  21  07:24:51  -4.22  -3.51   -44.492562    2      3      
iter:  22  07:24:53  -4.21  -3.48   -44.493528    1      4      
iter:  23  07:24:55  -4.73  -3.53   -44.493747    1      4      
iter:  24  07:24:57  -4.70  -3.56   -44.492963    2      4      
iter:  25  07:24:58  -4.82  -3.89   -44.494081    2      2      
iter:  26  07:25:00  -5.32  -3.90   -44.493460    2      3      
iter:  27  07:25:02  -5.44  -3.97   -44.492896    2      3      
iter:  28  07:25:03  -5.76  -4.04   -44.492765    2      2      
iter:  29  07:25:05  -5.84  -4.07   -44.492303    2      3      
iter:  30  07:25:07  -6.00  -4.61   -44.493313    2      2      
iter:  31  07:25:09  -6.40  -4.95   -44.493215    2      2      
iter:  32  07:25:10  -6.46  -5.11   -44.492379    1      1      
iter:  33  07:25:12  -7.04  -5.12   -44.493249    1      1      
iter:  34  07:25:14  -7.05  -5.30   -44.492573    1      1      
iter:  35  07:25:15  -7.55  -5.44   -44.493066    1      1      

Converged after 35 iterations.

Dipole moment: (-2.851441, -6.796981, -0.000000) |e|*Ang

Energy contributions relative to reference atoms: (reference = -16442.049848)

Kinetic:       +556.509215
Potential:     -372.329878
External:        +0.000000
XC:            -229.931894
Entropy (-ST):   -0.004505
Local:           +1.261744
--------------------------
Free energy:    -44.495318
Extrapolated:   -44.493066

Fermi level: 3.47025

 Band  Eigenvalues  Occupancy
    0    -26.33230    2.00000
    1    -23.31528    2.00000
    2    -23.31528    2.00000
    3    -22.33571    2.00000
    4    -22.33570    2.00000
    5    -19.41901    2.00000
    6    -19.41901    2.00000
    7    -19.41900    2.00000
    8    -19.41900    2.00000
    9    -14.65054    2.00000
   10    -14.65053    2.00000
   11    -14.59539    2.00000
   12    -14.59538    2.00000
   13    -14.55145    2.00000
   14    -12.19721    2.00000
   15    -10.15064    2.00000
   16    -10.15064    2.00000
   17     -7.83883    2.00000
   18     -7.83883    2.00000
   19     -6.41252    2.00000
   20     -6.41251    2.00000
   21     -3.37206    2.00000
   22     -3.37205    2.00000
   23     -2.21939    2.00000
   24     -2.21939    2.00000
   25     -2.21939    2.00000
   26     -2.21938    2.00000
   27     -0.19984    2.00000
   28     -0.14183    2.00000
   29     -0.14182    2.00000
   30      2.74081    1.99864
   31      2.74081    1.99864
   32      4.19968    0.00136
   33      4.19969    0.00136
   34      6.07549    0.00000
   35      6.09387    0.00000
   36      6.09388    0.00000
   37      9.04016    0.00000
   38      9.04016    0.00000
   39      9.84762    0.00000
   40      9.84763    0.00000
   41      9.84763    0.00000
   42      9.84764    0.00000
   43     11.13571    0.00000
   44     11.13571    0.00000
   45     12.10892    0.00000
   46     12.10892    0.00000
   47     13.55818    0.00000
   48     13.55820    0.00000
   49     13.83790    0.00000
   50     15.42491    0.00000
   51     15.42513    0.00000
   52     16.72829    0.00000
   53     16.72829    0.00000
   54     16.72830    0.00000
   55     16.72830    0.00000
   56     19.91212    0.00000
   57     19.91462    0.00000
   58     19.91463    0.00000
   59     21.63827    0.00000
   60     21.63827    0.00000
   61     24.52171    0.00000
   62     24.52173    0.00000
   63     26.35237    0.00000

Timing:                              incl.     excl.
-----------------------------------------------------------
Hamiltonian:                         1.237     0.000   0.0% |
 Atomic:                             0.713     0.003   0.0% |
  XC Correction:                     0.710     0.710   0.8% |
 Calculate atomic Hamiltonians:      0.006     0.006   0.0% |
 Communicate:                        0.000     0.000   0.0% |
 Hartree integrate/restrict:         0.002     0.002   0.0% |
 Initialize Hamiltonian:             0.002     0.002   0.0% |
 Poisson:                            0.394     0.394   0.4% |
 XC 3D grid:                         0.119     0.119   0.1% |
 vbar:                               0.000     0.000   0.0% |
LCAO initialization:                 2.048     0.028   0.0% |
 LCAO eigensolver:                   0.411     0.000   0.0% |
  Calculate projections:             0.001     0.001   0.0% |
  DenseAtomicCorrection:             0.001     0.001   0.0% |
  Distribute overlap matrix:         0.000     0.000   0.0% |
  Orbital Layouts:                   0.002     0.002   0.0% |
  Potential matrix:                  0.407     0.407   0.5% |
 LCAO to grid:                       0.619     0.619   0.7% |
 Set positions (LCAO WFS):           0.991     0.000   0.0% |
  Basic WFS set positions:           0.002     0.002   0.0% |
  Basis functions set positions:     0.000     0.000   0.0% |
  TCI: Calculate S, T, P:            0.988     0.988   1.1% |
SCF-cycle:                          58.720     0.098   0.1% |
 Davidson:                          20.245     6.592   7.4% |--|
  calc. matrices:                    8.724     7.474   8.4% |--|
   Apply hamiltonian:                1.250     1.250   1.4% ||
  diagonalize:                       0.343     0.343   0.4% |
  rotate_psi:                        4.586     4.586   5.2% |-|
 Density:                            0.629     0.001   0.0% |
  Atomic density matrices:           0.083     0.083   0.1% |
  Mix:                               0.323     0.323   0.4% |
  Multipole moments:                 0.019     0.019   0.0% |
  Pseudo density:                    0.204     0.083   0.1% |
   Symmetrize density:               0.121     0.121   0.1% |
 Hamiltonian:                       29.735     0.003   0.0% |
  Atomic:                           22.379     0.085   0.1% |
   XC Correction:                   22.294    22.294  25.2% |---------|
  Calculate atomic Hamiltonians:     0.202     0.202   0.2% |
  Communicate:                       0.000     0.000   0.0% |
  Hartree integrate/restrict:        0.075     0.075   0.1% |
  Poisson:                           3.453     3.453   3.9% |-|
  XC 3D grid:                        3.605     3.605   4.1% |-|
  vbar:                              0.016     0.016   0.0% |
 Orthonormalize:                     0.161     0.000   0.0% |
  Band Layouts:                      0.000     0.000   0.0% |
   Inverse Cholesky:                 0.000     0.000   0.0% |
  calc_s_matrix:                     0.032     0.032   0.0% |
  projections:                       0.058     0.058   0.1% |
  rotate_psi:                        0.071     0.071   0.1% |
 Subspace diag:                      7.852     0.003   0.0% |
  Band Layouts:                      0.046     0.001   0.0% |
   Diagonalize:                      0.045     0.045   0.1% |
   Distribute results:               0.001     0.001   0.0% |
  calc_h_matrix:                     3.308     2.044   2.3% ||
   Apply hamiltonian:                1.264     1.264   1.4% ||
  rotate_psi:                        4.495     4.495   5.1% |-|
Set symmetry:                        0.000     0.000   0.0% |
Other:                              26.630    26.630  30.0% |-----------|
-----------------------------------------------------------
Total:                                        88.634 100.0%

Memory usage: 465.52 MiB
Date: Mon Feb 26 07:25:41 2018
