
  ___ ___ ___ _ _ _  
 |   |   |_  | | | | 
 | | | | | . | | | | 
 |__ |  _|___|_____|  1.2.0
 |___|_|             

User:   user@ubuntu
Date:   Mon Feb 26 07:20:45 2018
Arch:   x86_64
Pid:    1570
Python: 3.6.3
gpaw:   /usr/lib/python3/dist-packages/gpaw
_gpaw:  /usr/lib/python3/dist-packages/_gpaw.cpython-36m-x86_64-linux-gnu.so
ase:    /home/user/.local/lib/python3.6/site-packages/ase (version 3.15.0)
numpy:  /home/user/.local/lib/python3.6/site-packages/numpy (version 1.14.0)
scipy:  /home/user/.local/lib/python3.6/site-packages/scipy (version 1.0.0)
units:  Angstrom and eV
cores:  1

Input parameters:
  h: 0.18
  xc: PBE

System changes: positions, numbers, cell, pbc, initial_charges, initial_magmoms 

Initialize ...

O-setup:
  name: Oxygen
  id: 32ecd46bf208036f09c70b0ec9a88b78
  Z: 8
  valence: 6
  core: 2
  charge: 0.0
  file: /usr/share/gpaw-setups/O.PBE.gz
  cutoffs: 0.67(comp), 1.17(filt), 0.83(core), lmax=2
  valence states:
                energy  radius
    2s(2.00)   -23.961   0.688
    2p(4.00)    -9.029   0.598
    *s           3.251   0.688
    *p          18.182   0.598
    *d           0.000   0.619

  Using partial waves for O as LCAO basis

H-setup:
  name: Hydrogen
  id: d65de229564ff8ea4db303e23b6d1ecf
  Z: 1
  valence: 1
  core: 0
  charge: 0.0
  file: /usr/share/gpaw-setups/H.PBE.gz
  cutoffs: 0.48(comp), 0.85(filt), 0.53(core), lmax=2
  valence states:
                energy  radius
    1s(1.00)    -6.494   0.476
    *s          20.717   0.476
    *p           0.000   0.476

  Using partial waves for H as LCAO basis

Reference energy: -2065.832626

Spin-paired calculation

Occupation numbers:
  Fermi-Dirac: width=0.0000 eV

Convergence criteria:
  Maximum total energy change: 0.0005 eV / electron
  Maximum integral of absolute density change: 0.0001 electrons
  Maximum integral of absolute eigenstate change: 4e-08 eV^2
  Maximum number of iterations: 333

Symmetries present (total): 1

  ( 1  0  0)
  ( 0  1  0)
  ( 0  0  1)

1 k-point (Gamma)
1 k-point in the irreducible part of the Brillouin zone
       k-points in crystal coordinates                weights
   0:     0.00000000    0.00000000    0.00000000          1/1

Wave functions: Uniform real-space grid
  Kinetic energy operator: 6*3+1=19 point O(h^6) finite-difference Laplacian
  Eigensolver: None  MatrixOperator buffer_size: default value or 
                              see value of nblock in input file
Diagonalizer layout: Serial LAPACKOrthonormalizer layout: Serial LAPACK 

Davidson(niter=1, smin=None, normalize=True) 

Densities:
  Coarse grid: 40*48*44 grid
  Fine grid: 80*96*88 grid
  Total Charge: 0.000000 

Density mixing:
  Method: separate
  Backend: pulay
  Linear mixing parameter: 0.25
  Mixing with 3 old densities
  No damping of long wave oscillations 

Hamiltonian:
  XC and Coulomb potentials evaluated on a 80*96*88 grid
  Using the PBE Exchange-Correlation functional
  Interpolation: tri-quintic (5. degree polynomial)
  Poisson solver: Jacobi solver with 4 multi-grid levels
    Coarsest grid: 10 x 12 x 11 points
    Stencil: 6*3+1=19 point O(h^6) finite-difference Laplacian
    Tolerance: 2.000000e-10
    Max iterations: 1000 

Memory estimate:
  Process memory now: 172.56 MiB
  Calculator: 58.38 MiB
    Density: 21.62 MiB
      Arrays: 16.15 MiB
      Localized functions: 1.86 MiB
      Mixer: 3.61 MiB
    Hamiltonian: 22.76 MiB
      Arrays: 10.56 MiB
      XC: 0.00 MiB
      Poisson: 12.06 MiB
      vbar: 0.13 MiB
    Wavefunctions: 13.99 MiB
      Arrays psit_nG: 3.61 MiB
      Eigensolver: 6.62 MiB
      Projections: 0.00 MiB
      Projectors: 0.16 MiB
      Overlap op: 3.61 MiB

Total number of cores used: 1

Number of atoms: 3
Number of atomic orbitals: 6
Number of bands in calculation: 6
Bands to converge: occupied states only
Number of valence electrons: 8

... initialized

Initializing position-dependent things.

Density initialized from atomic densities
Creating initial wave functions:
  6 bands from LCAO basis set

      .----------------.  
     /|                |  
    / |                |  
   /  |                |  
  /   |                |  
 *    |                |  
 |    |                |  
 |    |     O          |  
 |    |     H          |  
 |    .----------------.  
 |   /                /   
 |  /                /    
 | /                /     
 |/                /      
 *----------------*       

Positions:
   0 O      3.500000    4.263239    4.096309
   1 H      3.500000    5.026478    3.500000
   2 H      3.500000    3.500000    3.500000

Unit cell:
           periodic     x           y           z      points  spacing
  1. axis:    no     7.000000    0.000000    0.000000    40     0.1750
  2. axis:    no     0.000000    8.526478    0.000000    48     0.1776
  3. axis:    no     0.000000    0.000000    7.596309    44     0.1726

                     log10-error:    total        iterations:
           time      wfs    density  energy       fermi  poisson
iter:   1  07:20:48  +1.96   +inf   -16.166528    0      18     
iter:   2  07:20:49  +1.22   +inf   -16.430202    0             
iter:   3  07:20:49  +0.37   +inf   -16.480214    0             
iter:   4  07:20:51  +0.53  -0.71   -14.759238    0      12     
iter:   5  07:20:52  +0.66  -0.96   -14.530995    0      11     
iter:   6  07:20:54  +0.69  -1.17   -14.538607    0      12     
iter:   7  07:20:56  +0.59  -1.80   -14.543725    0      7      
iter:   8  07:20:57  -0.47  -2.08   -14.545296    0      6      
iter:   9  07:20:59  -0.57  -2.21   -14.546928    0      6      
iter:  10  07:21:00  -1.24  -2.36   -14.547777    0      6      
iter:  11  07:21:01  -1.45  -2.73   -14.547707    0      4      
iter:  12  07:21:02  -1.71  -2.85   -14.548024    0      4      
iter:  13  07:21:04  -2.05  -3.17   -14.548153    0      4      
iter:  14  07:21:05  -2.27  -3.35   -14.548266    0      3      
iter:  15  07:21:06  -2.70  -3.67   -14.548268    0      3      
iter:  16  07:21:07  -2.92  -4.03   -14.548265    0      2      
iter:  17  07:21:07  -3.25  -3.97   -14.548175    0      1      
iter:  18  07:21:08  -3.43  -3.81   -14.548185    0      1      
iter:  19  07:21:09  -3.76  -3.75   -14.548365    0      1      
iter:  20  07:21:10  -3.97  -3.74   -14.548237    0      2      
iter:  21  07:21:11  -4.23  -3.66   -14.548193    0      3      
iter:  22  07:21:12  -3.90  -3.47   -14.548316    0      3      
iter:  23  07:21:13  -4.51  -3.85   -14.548321    0      3      
iter:  24  07:21:14  -4.15  -4.06   -14.548095    0      2      
iter:  25  07:21:15  -5.24  -4.44   -14.548060    0      1      
iter:  26  07:21:16  -5.60  -4.57   -14.548252    0      2      
iter:  27  07:21:17  -6.37  -4.88   -14.548176    0      1      
iter:  28  07:21:18  -6.41  -5.18   -14.548214    0      1      
iter:  29  07:21:18  -7.15  -5.37   -14.548235    0      1      
iter:  30  07:21:19  -7.01  -5.59   -14.548252    0      1      
iter:  31  07:21:20  -7.86  -5.85   -14.548245    0      1      

Converged after 31 iterations.

Dipole moment: (0.000000, 0.000000, -0.382503) |e|*Ang

Energy contributions relative to reference atoms: (reference = -2065.832626)

Kinetic:        +16.260884
Potential:      -18.609938
External:        +0.000000
XC:             -12.670961
Entropy (-ST):   +0.000000
Local:           +0.471769
--------------------------
Free energy:    -14.548245
Extrapolated:   -14.548245

Fermi level: -3.89510

 Band  Eigenvalues  Occupancy
    0    -25.26403    2.00000
    1    -13.08682    2.00000
    2     -9.36160    2.00000
    3     -7.24812    2.00000
    4     -0.54208    0.00000
    5      1.34150    0.00000
Timing:                              incl.     excl.
-----------------------------------------------------------
Hamiltonian:                         2.548     0.000   0.0% |
 Atomic:                             0.094     0.001   0.0% |
  XC Correction:                     0.094     0.094   0.0% |
 Calculate atomic Hamiltonians:      0.001     0.001   0.0% |
 Communicate:                        0.000     0.000   0.0% |
 Hartree integrate/restrict:         0.009     0.009   0.0% |
 Initialize Hamiltonian:             0.002     0.002   0.0% |
 Poisson:                            1.874     1.874   0.1% |
 XC 3D grid:                         0.564     0.564   0.0% |
 vbar:                               0.004     0.004   0.0% |
LCAO initialization:                 0.068     0.048   0.0% |
 LCAO eigensolver:                   0.009     0.000   0.0% |
  Calculate projections:             0.000     0.000   0.0% |
  DenseAtomicCorrection:             0.000     0.000   0.0% |
  Distribute overlap matrix:         0.000     0.000   0.0% |
  Orbital Layouts:                   0.004     0.004   0.0% |
  Potential matrix:                  0.004     0.004   0.0% |
 LCAO to grid:                       0.006     0.006   0.0% |
 Set positions (LCAO WFS):           0.005     0.000   0.0% |
  Basic WFS set positions:           0.000     0.000   0.0% |
  Basis functions set positions:     0.000     0.000   0.0% |
  TCI: Calculate S, T, P:            0.005     0.005   0.0% |
SCF-cycle:                          32.015     0.034   0.0% |
 Davidson:                           1.673     0.792   0.1% |
  calc. matrices:                    0.660     0.295   0.0% |
   Apply hamiltonian:                0.365     0.365   0.0% |
  diagonalize:                       0.003     0.003   0.0% |
  rotate_psi:                        0.219     0.219   0.0% |
 Density:                            0.470     0.001   0.0% |
  Atomic density matrices:           0.018     0.018   0.0% |
  Mix:                               0.416     0.416   0.0% |
  Multipole moments:                 0.005     0.005   0.0% |
  Pseudo density:                    0.030     0.030   0.0% |
   Symmetrize density:               0.000     0.000   0.0% |
 Hamiltonian:                       29.170     0.003   0.0% |
  Atomic:                            2.721     0.024   0.0% |
   XC Correction:                    2.697     2.697   0.2% |
  Calculate atomic Hamiltonians:     0.030     0.030   0.0% |
  Communicate:                       0.000     0.000   0.0% |
  Hartree integrate/restrict:        0.258     0.258   0.0% |
  Poisson:                          11.009    11.009   0.8% |
  XC 3D grid:                       15.087    15.087   1.2% |
  vbar:                              0.062     0.062   0.0% |
 Orthonormalize:                     0.006     0.000   0.0% |
  Band Layouts:                      0.000     0.000   0.0% |
   Inverse Cholesky:                 0.000     0.000   0.0% |
  calc_s_matrix:                     0.002     0.002   0.0% |
  projections:                       0.001     0.001   0.0% |
  rotate_psi:                        0.004     0.004   0.0% |
 Subspace diag:                      0.660     0.002   0.0% |
  Band Layouts:                      0.002     0.000   0.0% |
   Diagonalize:                      0.001     0.001   0.0% |
   Distribute results:               0.000     0.000   0.0% |
  calc_h_matrix:                     0.443     0.074   0.0% |
   Apply hamiltonian:                0.369     0.369   0.0% |
  rotate_psi:                        0.213     0.213   0.0% |
Set symmetry:                        0.000     0.000   0.0% |
Other:                            1261.186  1261.186  97.3% |--------------------------------------|
-----------------------------------------------------------
Total:                                      1295.818 100.0%

Memory usage: 253.18 MiB
Date: Mon Feb 26 07:21:20 2018
