
  ___ ___ ___ _ _ _  
 |   |   |_  | | | | 
 | | | | | . | | | | 
 |__ |  _|___|_____|  1.2.0
 |___|_|             

User:   user@ubuntu
Date:   Mon Feb 26 07:26:02 2018
Arch:   x86_64
Pid:    1781
Python: 3.6.3
gpaw:   /usr/lib/python3/dist-packages/gpaw
_gpaw:  /usr/lib/python3/dist-packages/_gpaw.cpython-36m-x86_64-linux-gnu.so
ase:    /home/user/.local/lib/python3.6/site-packages/ase (version 3.15.0)
numpy:  /home/user/.local/lib/python3.6/site-packages/numpy (version 1.14.0)
scipy:  /home/user/.local/lib/python3.6/site-packages/scipy (version 1.0.0)
units:  Angstrom and eV
cores:  1

Input parameters:
  h: 0.18
  xc: PBE

System changes: positions, numbers, cell, pbc, initial_charges, initial_magmoms 

Initialize ...

C-setup:
  name: Carbon
  id: 4aa54d4b901d75f77cc0ea3eec22967b
  Z: 6
  valence: 4
  core: 2
  charge: 0.0
  file: /usr/share/gpaw-setups/C.PBE.gz
  cutoffs: 0.64(comp), 1.14(filt), 1.14(core), lmax=2
  valence states:
                energy  radius
    2s(2.00)   -13.751   0.635
    2p(2.00)    -5.284   0.635
    *s          13.461   0.635
    *p          21.927   0.635
    *d           0.000   0.635

  Using partial waves for C as LCAO basis

H-setup:
  name: Hydrogen
  id: d65de229564ff8ea4db303e23b6d1ecf
  Z: 1
  valence: 1
  core: 0
  charge: 0.0
  file: /usr/share/gpaw-setups/H.PBE.gz
  cutoffs: 0.48(comp), 0.85(filt), 0.53(core), lmax=2
  valence states:
                energy  radius
    1s(1.00)    -6.494   0.476
    *s          20.717   0.476
    *p           0.000   0.476

  Using partial waves for H as LCAO basis

Reference energy: -3182.805644

Spin-paired calculation

Occupation numbers:
  Fermi-Dirac: width=0.0000 eV

Convergence criteria:
  Maximum total energy change: 0.0005 eV / electron
  Maximum integral of absolute density change: 0.0001 electrons
  Maximum integral of absolute eigenstate change: 4e-08 eV^2
  Maximum number of iterations: 333

Symmetries present (total): 1

  ( 1  0  0)
  ( 0  1  0)
  ( 0  0  1)

1 k-point (Gamma)
1 k-point in the irreducible part of the Brillouin zone
       k-points in crystal coordinates                weights
   0:     0.00000000    0.00000000    0.00000000          1/1

Wave functions: Uniform real-space grid
  Kinetic energy operator: 6*3+1=19 point O(h^6) finite-difference Laplacian
  Eigensolver: None  MatrixOperator buffer_size: default value or 
                              see value of nblock in input file
Diagonalizer layout: Serial LAPACKOrthonormalizer layout: Serial LAPACK 

Davidson(niter=1, smin=None, normalize=True) 

Densities:
  Coarse grid: 48*64*52 grid
  Fine grid: 96*128*104 grid
  Total Charge: 0.000000 

Density mixing:
  Method: separate
  Backend: pulay
  Linear mixing parameter: 0.25
  Mixing with 3 old densities
  No damping of long wave oscillations 

Hamiltonian:
  XC and Coulomb potentials evaluated on a 96*128*104 grid
  Using the PBE Exchange-Correlation functional
  Interpolation: tri-quintic (5. degree polynomial)
  Poisson solver: Jacobi solver with 4 multi-grid levels
    Coarsest grid: 12 x 16 x 13 points
    Stencil: 6*3+1=19 point O(h^6) finite-difference Laplacian
    Tolerance: 2.000000e-10
    Max iterations: 1000 

Memory estimate:
  Process memory now: 65.62 MiB
  Calculator: 161.86 MiB
    Density: 42.97 MiB
      Arrays: 30.75 MiB
      Localized functions: 5.31 MiB
      Mixer: 6.91 MiB
    Hamiltonian: 43.49 MiB
      Arrays: 20.11 MiB
      XC: 0.00 MiB
      Poisson: 22.96 MiB
      vbar: 0.42 MiB
    Wavefunctions: 75.39 MiB
      Arrays psit_nG: 23.04 MiB
      Eigensolver: 28.83 MiB
      Projections: 0.01 MiB
      Projectors: 0.46 MiB
      Overlap op: 23.05 MiB

Total number of cores used: 1

Number of atoms: 11
Number of atomic orbitals: 20
Number of bands in calculation: 20
Bands to converge: occupied states only
Number of valence electrons: 20

... initialized

Initializing position-dependent things.

Density initialized from atomic densities
Creating initial wave functions:
  20 bands from LCAO basis set

        .---------------------.  
       /|                     |  
      / |                     |  
     /  |                     |  
    /   |                     |  
   /    |                     |  
  /     |                     |  
 *      |        H            |  
 |      |    H  C H           |  
 |      |     H C  H          |  
 |      |     HC              |  
 |      .---H----H------------.  
 |     /                     /   
 |    /                     /    
 |   /                     /     
 |  /                     /      
 | /                     /       
 |/                     /        
 *---------------------*         

Positions:
   0 C      4.383619    5.666150    4.992121
   1 C      4.383619    6.933007    4.144219
   2 C      4.383619    4.399293    4.144219
   3 H      3.506721    5.666150    5.649118
   4 H      5.260517    5.666150    5.649118
   5 H      4.383619    7.832300    4.766471
   6 H      4.383619    3.500000    4.766471
   7 H      5.267238    6.970384    3.500000
   8 H      3.500000    6.970384    3.500000
   9 H      3.500000    4.361916    3.500000
  10 H      5.267238    4.361916    3.500000

Unit cell:
           periodic     x           y           z      points  spacing
  1. axis:    no     8.767238    0.000000    0.000000    48     0.1827
  2. axis:    no     0.000000   11.332300    0.000000    64     0.1771
  3. axis:    no     0.000000    0.000000    9.149118    52     0.1759

                     log10-error:    total        iterations:
           time      wfs    density  energy       fermi  poisson
iter:   1  07:26:11  +2.10   +inf   -62.131168    0      28     
iter:   2  07:26:12  +1.39   +inf   -63.245372    0             
iter:   3  07:26:13  +0.48   +inf   -63.436439    0             
iter:   4  07:26:20  +0.34  -0.55   -58.687452    0      21     
iter:   5  07:26:27  +0.39  -0.76   -57.074207    0      21     
iter:   6  07:26:31  +0.82  -1.11   -56.957203    0      9      
iter:   7  07:26:36  -0.24  -1.54   -56.940356    0      15     
iter:   8  07:26:39  -0.14  -2.17   -56.948009    0      5      
iter:   9  07:26:43  -1.10  -2.32   -56.950091    0      5      
iter:  10  07:26:46  -1.07  -2.49   -56.951810    0      6      
iter:  11  07:26:50  -1.73  -2.62   -56.952039    0      5      
iter:  12  07:26:53  -1.90  -3.02   -56.952174    0      4      
iter:  13  07:26:56  -2.44  -3.13   -56.952337    0      4      
iter:  14  07:26:59  -2.61  -3.28   -56.952469    0      4      
iter:  15  07:27:02  -3.02  -3.49   -56.952457    0      4      
iter:  16  07:27:05  -3.33  -3.78   -56.952063    0      2      
iter:  17  07:27:08  -3.59  -3.99   -56.952287    0      2      
iter:  18  07:27:10  -3.84  -4.25   -56.952366    0      2      
iter:  19  07:27:13  -4.10  -4.35   -56.952369    0      2      
iter:  20  07:27:16  -4.37  -4.50   -56.952412    0      2      
iter:  21  07:27:19  -4.59  -4.90   -56.952312    0      1      
iter:  22  07:27:22  -4.86  -4.88   -56.952362    0      1      
iter:  23  07:27:25  -5.07  -4.83   -56.952245    0      1      
iter:  24  07:27:28  -5.31  -4.54   -56.952425    0      1      
iter:  25  07:27:31  -5.52  -4.83   -56.952349    0      2      
iter:  26  07:27:34  -5.76  -5.25   -56.952379    0      1      
iter:  27  07:27:36  -5.94  -5.40   -56.952396    0      1      
iter:  28  07:27:39  -6.20  -5.71   -56.952336    0      1      
iter:  29  07:27:42  -6.33  -5.81   -56.952344    0      1      
iter:  30  07:27:45  -6.60  -5.95   -56.952328    0      1      
iter:  31  07:27:47  -6.72  -5.96   -56.952326    0      1      
iter:  32  07:27:50  -6.98  -6.03   -56.952324    0      1      
iter:  33  07:27:53  -7.09  -6.30   -56.952320    0      1      
iter:  34  07:27:56  -7.36  -6.47   -56.952322    0      1      
iter:  35  07:27:59  -7.44  -6.60   -56.952322    0      1      

Converged after 35 iterations.

Dipole moment: (0.000000, 0.000000, 0.020716) |e|*Ang

Energy contributions relative to reference atoms: (reference = -3182.805644)

Kinetic:        +55.856478
Potential:      -62.470783
External:        +0.000000
XC:             -50.554560
Entropy (-ST):   +0.000000
Local:           +0.216543
--------------------------
Free energy:    -56.952322
Extrapolated:   -56.952322

Fermi level: -3.85737

 Band  Eigenvalues  Occupancy
    0    -19.29277    2.00000
    1    -16.69068    2.00000
    2    -14.23858    2.00000
    3    -11.12417    2.00000
    4    -10.60441    2.00000
    5     -9.60692    2.00000
    6     -9.11634    2.00000
    7     -8.05577    2.00000
    8     -8.01911    2.00000
    9     -7.73134    2.00000
   10      0.01660    0.00000
   11      0.70882    0.00000
   12      0.93107    0.00000
   13      1.07180    0.00000
   14      1.62346    0.00000
   15      1.99614    0.00000
   16      2.07234    0.00000
   17      2.36577    0.00000
   18      2.72057    0.00000
   19      3.95642    0.00000

