    #         X           Y           Z        CHARGE     MIN DIST    ATOMIC VOL
 --------------------------------------------------------------------------------
    1      9.4486      9.4486      9.4486     10.0922      2.0720   3108.0624
    2      9.4486      9.4486     14.7777     17.9073      3.1912   5543.1327
 --------------------------------------------------------------------------------
    VACUUM CHARGE:               0.0000
    VACUUM VOLUME:               0.0000
    NUMBER OF ELECTRONS:        27.9995
