
  ___ ___ ___ _ _ _  
 |   |   |_  | | | | 
 | | | | | . | | | | 
 |__ |  _|___|_____|  1.2.0
 |___|_|             

User:   user@ubuntu
Date:   Wed Mar 14 07:30:10 2018
Arch:   x86_64
Pid:    33778
Python: 3.6.3
gpaw:   /usr/lib/python3/dist-packages/gpaw
_gpaw:  /usr/lib/python3/dist-packages/_gpaw.cpython-36m-x86_64-linux-gnu.so
ase:    /home/user/.local/lib/python3.6/site-packages/ase (version 3.15.0)
numpy:  /home/user/.local/lib/python3.6/site-packages/numpy (version 1.14.2)
scipy:  /home/user/.local/lib/python3.6/site-packages/scipy (version 1.0.0)
units:  Angstrom and eV
cores:  1

Input parameters:
  basis: dzp
  eigensolver: rmm-diis
  h: 0.14
  xc: PBE-PZ-SIC

System changes: positions, numbers, cell, pbc, initial_charges, initial_magmoms 

Initialize ...

Na-setup:
  name: Sodium
  id: d7ecbc49209718622bcbe287195dca2a
  Z: 11
  valence: 7
  core: 4
  charge: 0.0
  file: /usr/share/gpaw-setups/Na.PBE.gz
  cutoffs: 1.18(comp), 2.17(filt), 2.59(core), lmax=2
  valence states:
                energy  radius
    3s(1.00)    -2.744   1.201
    2p(6.00)   -28.672   1.217
    3p(0.00)    -0.743   1.217
    *s          24.468   1.201
    *d           0.000   1.238

  LCAO basis set for Na:
    Name: dzp
    File: /usr/share/gpaw-setups/Na.dzp.basis.gz
    Number of radial functions: 7
    Number of spherical harmonics: 17
      l=0, rc=11.4062 Bohr: 3s-sz confined orbital
      l=1, rc=3.6719 Bohr: 2p-sz confined orbital
      l=1, rc=15.9375 Bohr: 3p-sz confined orbital
      l=0, rc=6.9531 Bohr: 3s-dz split-valence wave
      l=1, rc=2.4219 Bohr: 2p-dz split-valence wave
      l=1, rc=10.0469 Bohr: 3p-dz split-valence wave
      l=1, rc=11.4062 Bohr: p-type Gaussian polarization

Cl-setup:
  name: Chlorine
  id: 726897f06f34e53cf8e33b5885a02604
  Z: 17
  valence: 7
  core: 10
  charge: 0.0
  file: /usr/share/gpaw-setups/Cl.PBE.gz
  cutoffs: 0.79(comp), 1.40(filt), 1.49(core), lmax=2
  valence states:
                energy  radius
    3s(2.00)   -20.689   0.794
    3p(5.00)    -8.594   0.794
    *s           6.523   0.794
    *p          18.617   0.794
    *d           0.000   0.794

  LCAO basis set for Cl:
    Name: dzp
    File: /usr/share/gpaw-setups/Cl.dzp.basis.gz
    Number of radial functions: 5
    Number of spherical harmonics: 13
      l=0, rc=5.1719 Bohr: 3s-sz confined orbital
      l=1, rc=6.2656 Bohr: 3p-sz confined orbital
      l=0, rc=2.8281 Bohr: 3s-dz split-valence wave
      l=1, rc=3.5156 Bohr: 3p-dz split-valence wave
      l=2, rc=6.2656 Bohr: d-type Gaussian polarization

Reference energy: -16973.559893

Spin-paired calculation

Occupation numbers:
  Fermi-Dirac: width=0.0000 eV

Convergence criteria:
  Maximum total energy change: 0.0005 eV / electron
  Maximum integral of absolute density change: 0.0001 electrons
  Maximum integral of absolute eigenstate change: 4e-08 eV^2
  Maximum number of iterations: 333

Symmetries present (total): 1

  ( 1  0  0)
  ( 0  1  0)
  ( 0  0  1)

1 k-point (Gamma)
1 k-point in the irreducible part of the Brillouin zone
       k-points in crystal coordinates                weights
   0:     0.00000000    0.00000000    0.00000000          1/1

Wave functions: Uniform real-space grid
  Kinetic energy operator: 6*3+1=19 point O(h^6) finite-difference Laplacian
  Eigensolver: None  MatrixOperator buffer_size: default value or 
                              see value of nblock in input file
Diagonalizer layout: Serial LAPACKOrthonormalizer layout: Serial LAPACK 

RMM-DIIS eigensolver
       keep_htpsit: True
       Block size: 1
       DIIS iterations: 3
       Threshold for DIIS: 1.0e-16
       Limit lambda: False
       use_rayleigh: False
       trial_step: 0.1 

Densities:
  Coarse grid: 72*72*92 grid
  Fine grid: 144*144*184 grid
  Total Charge: 0.000000 

Density mixing:
  Method: separate
  Backend: pulay
  Linear mixing parameter: 0.25
  Mixing with 3 old densities
  No damping of long wave oscillations 

Hamiltonian:
  XC and Coulomb potentials evaluated on a 144*144*184 grid
  Using the PBE-PZ-SIC Exchange-Correlation functional
  Interpolation: tri-quintic (5. degree polynomial)
  Poisson solver: Jacobi solver with 4 multi-grid levels
    Coarsest grid: 18 x 18 x 23 points
    Stencil: 6*3+1=19 point O(h^6) finite-difference Laplacian
    Tolerance: 2.000000e-10
    Max iterations: 1000 

Memory estimate:
  Process memory now: 67.16 MiB
  Calculator: 396.31 MiB
    Density: 130.32 MiB
      Arrays: 92.65 MiB
      Localized functions: 16.67 MiB
      Mixer: 21.00 MiB
    Hamiltonian: 130.98 MiB
      Arrays: 60.60 MiB
      XC: 0.00 MiB
      Poisson: 69.15 MiB
      vbar: 1.23 MiB
    Wavefunctions: 135.00 MiB
      Arrays psit_nG: 38.50 MiB
      Eigensolver: 56.00 MiB
      Projections: 0.00 MiB
      Projectors: 2.01 MiB
      Overlap op: 38.50 MiB

Total number of cores used: 1

Number of atoms: 2
Number of atomic orbitals: 30
Number of bands in calculation: 11
Bands to converge: occupied states only
Number of valence electrons: 14

... initialized

Initializing position-dependent things.

Density initialized from atomic densities
Creating initial wave functions:
  11 bands from LCAO basis set

       .------------------------.  
      /|                        |  
     / |                        |  
    /  |                        |  
   /   |                        |  
  /    |                        |  
 *     |                        |  
 |     |                        |  
 |     |                        |  
 |     |         Cl             |  
 |     |                        |  
 |     |                        |  
 |     |                        |  
 |     |         Na             |  
 |     |                        |  
 |     |                        |  
 |     .------------------------.  
 |    /                        /   
 |   /                        /    
 |  /                        /     
 | /                        /      
 |/                        /       
 *------------------------*        

Positions:
   0 Na     5.000000    5.000000    5.000000
   1 Cl     5.000000    5.000000    7.820000

Unit cell:
           periodic     x           y           z      points  spacing
  1. axis:    no    10.000000    0.000000    0.000000    72     0.1389
  2. axis:    no     0.000000   10.000000    0.000000    72     0.1389
  3. axis:    no     0.000000    0.000000   12.820000    92     0.1393

                     log10-error:    total        iterations:
           time      wfs    density  energy       fermi  poisson
iter:   1  07:30:51  +2.02   +inf    -4.899446    0      50     
iter:   2  07:30:53  -0.73   +inf    -5.342749    0             
iter:   3  07:30:55  -1.26   +inf    -5.379654    0             
iter:   4  07:33:49  -0.16  -0.97     4.889897    0      30     
iter:   5  07:35:38  -0.21  -1.09     5.206537    0      31     
iter:   6  07:36:43  -0.76  -1.20     4.774389    0      26     
iter:   7  07:37:41  -0.40  -1.26     4.645679    0      29     
iter:   8  07:38:59  -0.32  -1.28     5.124934    0      31     
iter:   9  07:40:05  -0.71  -2.12     4.999407    0      18     
iter:  10  07:41:03  -1.22  -1.77     4.933113    0      20     
iter:  11  07:41:53  -1.50  -2.11     4.928828    0      18     
iter:  12  07:42:51  -1.91  -2.30     4.919347    0      13     
iter:  13  07:43:39  -2.09  -2.35     4.914156    0      5      
iter:  14  07:44:28  -2.21  -2.29     4.909410    0      6      
iter:  15  07:45:15  -2.34  -2.26     4.905846    0      4      
iter:  16  07:45:57  -2.49  -2.21     4.905548    0      10     
iter:  17  07:46:49  -2.12  -2.25     4.895884    0      16     
iter:  18  07:47:47  -2.33  -2.01     4.905750    0      18     
iter:  19  07:48:40  -2.39  -2.33     4.906041    0      14     
iter:  20  07:49:26  -2.70  -2.52     4.903998    0      5      
iter:  21  07:51:09  -3.03  -2.63     4.903971    0      5      
iter:  22  07:52:50  -3.08  -2.95     4.904015    0      9      
iter:  23  07:53:44  -3.23  -3.08     4.903838    0      7      
iter:  24  07:56:49  -3.36  -3.62     4.903751    0      2      
iter:  25  07:59:45  -3.35  -3.57     4.903167    0      4      
iter:  26  08:00:24  -3.52  -3.06     4.903401    0      3      
iter:  27  08:01:11  -3.66  -3.21     4.903339    0      4      
iter:  28  08:01:48  -3.76  -3.60     4.903317    0      3      
iter:  29  08:02:51  -3.85  -3.93     4.903151    0      3      
iter:  30  08:03:30  -3.93  -3.92     4.903240    0      3      
iter:  31  08:04:10  -4.00  -4.29     4.903162    0      2      
iter:  32  08:08:53  -4.05  -4.15     4.903024    0      2      
iter:  33  08:09:30  -4.13  -4.05     4.902862    0      2      
iter:  34  08:10:08  -4.19  -3.75     4.902925    0      2      
iter:  35  08:10:46  -4.25  -3.77     4.903117    0      4      
iter:  36  08:11:25  -4.31  -4.18     4.903097    0      3      
iter:  37  08:12:11  -4.38  -4.35     4.902994    0      1      
iter:  38  08:16:18  -4.45  -4.11     4.902980    0      1      
iter:  39  08:18:00  -4.42  -3.95     4.902908    0      2      
iter:  40  08:22:34  -4.51  -3.95     4.902960    0      2      
iter:  41  08:23:09  -4.59  -4.06     4.903028    0      3      
iter:  42  08:25:05  -4.54  -4.44     4.902863    0      2      
iter:  43  08:27:33  -4.66  -4.10     4.902942    0      3      
iter:  44  08:28:06  -4.75  -4.84     4.902807    0      1      
iter:  45  08:32:40  -4.81  -4.53     4.902736    0      2      
iter:  46  08:37:17  -4.83  -4.15     4.902772    0      2      
iter:  47  08:37:51  -4.94  -4.25     4.902664    0      2      
iter:  48  08:38:49  -4.78  -3.98     4.902783    0      2      
iter:  49  08:39:26  -4.56  -4.15     4.902772    0      2      
iter:  50  08:40:02  -4.84  -4.09     4.902836    0      3      
iter:  51  08:40:35  -4.98  -4.51     4.902742    0      1      
iter:  52  08:41:34  -5.10  -4.22     4.902670    0      2      
iter:  53  08:43:18  -5.16  -4.03     4.902747    0      2      
iter:  54  08:43:52  -5.27  -4.25     4.902804    0      2      
iter:  55  08:45:00  -5.37  -4.67     4.902637    0      2      
iter:  56  08:49:32  -5.37  -4.31     4.902710    0      2      
iter:  57  08:50:05  -5.48  -5.13     4.902695    0      1      
iter:  58  08:50:40  -5.58  -5.06     4.902714    0      2      
iter:  59  08:51:14  -5.66  -4.88     4.902684    0      1      
iter:  60  08:51:47  -5.74  -5.30     4.902682    0      1      
iter:  61  08:52:23  -5.70  -5.07     4.902658    0      1      
iter:  62  08:52:56  -5.83  -4.69     4.902685    0      1      
iter:  63  08:53:33  -5.47  -4.73     4.902691    0      1      
iter:  64  08:54:07  -5.72  -4.60     4.902736    0      1      
iter:  65  08:54:40  -5.88  -4.66     4.902650    0      1      
iter:  66  08:55:14  -5.96  -4.35     4.902644    0      1      
iter:  67  08:55:48  -6.12  -4.41     4.902696    0      2      
iter:  68  08:56:23  -6.11  -4.68     4.902709    0      2      
iter:  69  08:56:55  -6.25  -4.93     4.902635    0      1      
iter:  70  08:57:29  -6.20  -5.28     4.902657    0      1      
iter:  71  08:58:01  -6.35  -5.23     4.902635    0      1      
iter:  72  08:58:35  -6.33  -4.83     4.902641    0      1      
iter:  73  08:59:08  -6.47  -4.86     4.902640    0      1      
iter:  74  08:59:42  -6.36  -4.81     4.902587    0      1      
iter:  75  09:00:14  -6.52  -4.45     4.902646    0      1      
iter:  76  09:00:47  -6.48  -4.68     4.902651    0      1      
iter:  77  09:01:20  -6.65  -4.61     4.902636    0      1      
iter:  78  09:01:53  -6.63  -4.96     4.902627    0      1      
iter:  79  09:02:25  -6.80  -5.29     4.902636    0      1      
iter:  80  09:02:59  -6.72  -5.55     4.902631    0      1      
iter:  81  09:03:30  -6.91  -5.28     4.902641    0      1      
iter:  82  09:04:03  -6.78  -4.98     4.902632    0      1      
iter:  83  09:04:35  -6.98  -4.92     4.902623    0      1      
iter:  84  09:05:08  -6.89  -4.74     4.902633    0      1      
iter:  85  09:05:39  -7.09  -4.72     4.902629    0      1      
iter:  86  09:06:12  -6.91  -4.96     4.902646    0      1      
iter:  87  09:06:44  -7.16  -5.59     4.902650    0      1      
iter:  88  09:07:16  -6.96  -5.78     4.902651    0      1      
iter:  89  09:07:48  -7.20  -5.70     4.902628    0      1      
iter:  90  09:08:21  -6.97  -5.87     4.902634    0      1      
iter:  91  09:08:53  -7.23  -5.46     4.902625    0      1      
iter:  92  09:09:27  -6.97  -5.40     4.902628    0      1      
iter:  93  09:09:58  -7.24  -6.25     4.902619    0      1      
iter:  94  09:10:32  -6.99  -5.70     4.902619    0      1      
iter:  95  09:15:00  -6.21  -5.62     4.902615    0      1      
iter:  96  09:15:31  -6.60  -5.09     4.902612    0      1      
iter:  97  09:16:05  -6.23  -4.96     4.902613    0      1      
iter:  98  09:16:38  -6.53  -4.82     4.902613    0      1      
iter:  99  09:17:11  -6.10  -4.73     4.902600    0      1      
iter: 100  09:17:44  -6.41  -4.51     4.902616    0      1      
iter: 101  09:18:21  -4.83  -4.62     4.902600    0      1      
iter: 102  09:20:56  -5.30  -4.19     4.902591    0      1      
iter: 103  09:21:29  -5.67  -4.12     4.902602    0      1      
iter: 104  09:22:01  -5.92  -4.17     4.902616    0      2      
iter: 105  09:22:34  -6.13  -4.55     4.902605    0      2      
iter: 106  09:23:06  -6.29  -4.50     4.902585    0      2      
iter: 107  09:23:40  -6.14  -4.94     4.902579    0      1      
iter: 108  09:24:36  -6.34  -5.20     4.902582    0      1      
iter: 109  09:28:54  -6.22  -5.45     4.902583    0      1      
iter: 110  09:30:21  -6.39  -5.48     4.902585    0      1      
iter: 111  09:34:44  -6.34  -5.48     4.902590    0      1      
iter: 112  09:36:13  -6.49  -4.89     4.902587    0      1      
iter: 113  09:36:44  -6.65  -4.83     4.902588    0      1      
iter: 114  09:41:08  -6.45  -4.81     4.902592    0      2      
iter: 115  09:41:48  -6.67  -4.39     4.902584    0      1      
iter: 116  09:46:11  -6.59  -4.59     4.902588    0      1      
iter: 117  09:50:36  -6.61  -4.61     4.902585    0      2      
iter: 118  09:55:00  -6.56  -5.28     4.902589    0      1      
iter: 119  09:55:32  -6.81  -5.32     4.902590    0      1      
iter: 120  09:56:15  -6.63  -5.44     4.902589    0      1      
iter: 121  09:56:48  -6.99  -5.24     4.902587    0      1      
iter: 122  09:57:21  -6.59  -5.07     4.902587    0      1      
iter: 123  10:01:46  -6.55  -5.02     4.902584    0      1      
iter: 124  10:06:08  -6.52  -4.84     4.902585    0      1      
iter: 125  10:10:32  -6.56  -4.72     4.902584    0      1      
iter: 126  10:14:56  -6.55  -4.59     4.902580    0      1      
iter: 127  10:15:36  -6.85  -4.50     4.902582    0      1      
iter: 128  10:16:08  -7.11  -4.45     4.902583    0      1      
iter: 129  10:17:33  -4.54  -4.42     4.902566    0      1      
iter: 130  10:18:40  -5.08  -4.10     4.902569    0      1      
iter: 131  10:19:21  -5.55  -3.95     4.902563    0      1      
iter: 132  10:23:44  -5.79  -3.93     4.902562    0      2      
iter: 133  10:28:09  -5.94  -3.84     4.902567    0      2      
iter: 134  10:28:42  -6.09  -3.85     4.902574    0      2      
iter: 135  10:29:19  -4.77  -3.85     4.902565    0      2      
iter: 136  10:30:51  -5.38  -3.86     4.902552    0      3      
iter: 137  10:35:16  -5.75  -4.59     4.902547    0      2      
iter: 138  10:39:40  -5.88  -5.05     4.902537    0      1      
iter: 139  10:44:05  -6.03  -4.81     4.902541    0      1      
iter: 140  10:48:24  -6.10  -4.83     4.902543    0      1      
iter: 141  10:52:43  -6.27  -4.58     4.902537    0      1      
iter: 142  10:57:03  -6.30  -4.53     4.902546    0      1      
iter: 143  11:01:25  -6.35  -4.27     4.902535    0      2      
iter: 144  11:05:48  -6.45  -4.61     4.902537    0      1      
iter: 145  11:10:10  -6.37  -4.59     4.902526    0      1      
iter: 146  11:14:32  -6.40  -4.36     4.902543    0      2      
iter: 147  11:18:54  -6.34  -5.42     4.902538    0      1      
iter: 148  11:23:14  -6.32  -5.31     4.902536    0      1      
iter: 149  11:27:36  -6.29  -5.17     4.902534    0      1      
iter: 150  11:31:57  -6.25  -4.64     4.902531    0      1      
iter: 151  11:36:18  -6.34  -4.84     4.902529    0      1      
iter: 152  11:40:38  -6.34  -5.06     4.902529    0      2      
iter: 153  11:44:58  -6.36  -5.58     4.902528    0      1      
iter: 154  11:49:21  -6.32  -5.24     4.902527    0      1      
iter: 155  11:53:41  -6.29  -4.54     4.902525    0      2      
iter: 156  11:58:03  -6.35  -4.93     4.902525    0      1      
iter: 157  12:02:27  -6.34  -4.94     4.902523    0      2      
iter: 158  12:06:51  -6.30  -5.21     4.902521    0      1      
iter: 159  12:11:15  -6.30  -4.84     4.902522    0      1      
iter: 160  12:15:39  -6.18  -5.13     4.902518    0      1      
iter: 161  12:20:01  -6.22  -4.85     4.902516    0      1      
iter: 162  12:24:26  -6.12  -4.53     4.902515    0      1      
iter: 163  12:28:46  -6.13  -4.61     4.902513    0      1      
iter: 164  12:33:13  -6.15  -4.51     4.902509    0      3      
iter: 165  12:37:39  -6.01  -4.18     4.902509    0      3      
iter: 166  12:42:04  -6.04  -4.61     4.902508    0      1      
iter: 167  12:46:32  -6.15  -4.57     4.902504    0      2      
iter: 168  12:51:00  -6.13  -4.79     4.902502    0      2      
iter: 169  12:55:23  -6.15  -4.99     4.902499    0      1      
iter: 170  12:59:51  -6.04  -4.82     4.902499    0      1      
iter: 171  13:04:14  -6.02  -4.95     4.902496    0      1      
iter: 172  13:08:41  -6.04  -4.67     4.902494    0      2      
iter: 173  13:13:10  -5.97  -5.06     4.902490    0      1      
iter: 174  13:17:38  -5.97  -4.69     4.902489    0      1      
iter: 175  13:22:06  -5.95  -4.50     4.902486    0      1      
iter: 176  13:26:28  -5.94  -4.37     4.902484    0      1      
iter: 177  13:30:52  -6.08  -4.24     4.902484    0      1      
iter: 178  13:35:17  -5.99  -4.19     4.902482    0      1      
iter: 179  13:39:49  -6.06  -4.13     4.902476    0      2      
iter: 180  13:44:19  -6.02  -3.91     4.902476    0      2      
iter: 181  13:44:59  -6.49  -4.06     4.902475    0      2      
iter: 182  13:45:40  -6.73  -4.44     4.902469    0      1      
iter: 183  13:46:21  -6.95  -4.54     4.902472    0      2      
iter: 184  13:47:02  -7.19  -4.82     4.902471    0      1      
iter: 185  13:47:42  -7.21  -4.93     4.902467    0      1      
iter: 186  13:48:22  -7.37  -5.33     4.902472    0      1      
iter: 187  13:52:48  -6.30  -5.10     4.902469    0      1      
iter: 188  13:57:14  -6.15  -4.97     4.902467    0      1      
iter: 189  14:01:38  -6.06  -4.64     4.902464    0      1      
iter: 190  14:06:04  -6.03  -4.50     4.902462    0      1      
iter: 191  14:10:29  -6.08  -4.46     4.902458    0      2      
iter: 192  14:14:53  -5.98  -4.18     4.902457    0      1      
iter: 193  14:19:22  -5.92  -4.17     4.902449    0      1      
iter: 194  14:23:48  -5.88  -4.06     4.902459    0      1      
iter: 195  14:28:16  -5.84  -4.05     4.902448    0      2      
iter: 196  14:32:43  -5.70  -4.09     4.902442    0      3      
iter: 197  14:33:26  -6.17  -4.00     4.902445    0      2      
iter: 198  14:37:54  -5.83  -4.41     4.902443    0      2      
iter: 199  14:42:23  -5.77  -4.79     4.902429    0      1      
iter: 200  14:43:05  -6.30  -4.62     4.902429    0      1      
iter: 201  14:43:47  -6.62  -4.67     4.902434    0      2      
iter: 202  14:48:15  -5.97  -5.10     4.902428    0      1      
iter: 203  14:52:42  -5.94  -5.12     4.902427    0      1      
iter: 204  14:57:11  -5.89  -4.75     4.902423    0      1      
iter: 205  15:01:38  -5.82  -4.45     4.902420    0      1      
iter: 206  15:06:05  -5.78  -4.35     4.902417    0      1      
iter: 207  15:10:32  -5.72  -4.28     4.902411    0      2      
iter: 208  15:15:00  -5.77  -3.92     4.902409    0      2      
iter: 209  15:19:32  -5.76  -4.03     4.902406    0      3      
iter: 210  15:20:14  -6.12  -4.90     4.902405    0      2      
iter: 211  15:20:55  -6.32  -4.50     4.902403    0      2      
iter: 212  15:25:21  -5.98  -4.58     4.902399    0      1      
iter: 213  15:26:03  -6.42  -4.43     4.902400    0      2      
iter: 214  15:26:44  -6.65  -5.16     4.902400    0      1      
iter: 215  15:31:11  -6.08  -5.22     4.902397    0      1      
iter: 216  15:35:42  -5.86  -5.10     4.902391    0      1      
iter: 217  15:40:08  -5.89  -4.65     4.902389    0      1      
iter: 218  15:44:37  -5.88  -4.48     4.902384    0      1      
iter: 219  15:49:10  -5.81  -4.32     4.902374    0      1      
iter: 220  15:49:51  -6.27  -4.11     4.902383    0      1      
iter: 221  15:54:24  -5.81  -4.14     4.902367    0      1      
iter: 222  15:58:57  -5.67  -4.02     4.902373    0      2      
iter: 223  16:03:25  -5.75  -3.90     4.902365    0      3      
iter: 224  16:07:58  -5.64  -4.17     4.902359    0      2      
iter: 225  16:08:31  -6.13  -4.35     4.902357    0      2      
iter: 226  16:09:06  -6.10  -4.44     4.902358    0      3      
iter: 227  16:09:47  -6.34  -4.56     4.902369    0      1      
iter: 228  16:14:15  -5.95  -5.01     4.902365    0      1      
iter: 229  16:18:49  -5.72  -4.87     4.902347    0      1      
iter: 230  16:23:21  -5.68  -4.75     4.902351    0      1      
iter: 231  16:27:54  -5.69  -4.36     4.902344    0      1      
iter: 232  16:31:58  -5.72  -4.21     4.902337    0      1      
iter: 233  16:36:31  -5.66  -4.16     4.902331    0      2      
iter: 234  16:37:12  -6.01  -4.27     4.902331    0      2      
iter: 235  16:41:46  -5.70  -3.96     4.902325    0      2      
iter: 236  16:42:29  -6.06  -4.11     4.902326    0      3      
iter: 237  16:43:10  -6.57  -4.72     4.902333    0      1      
iter: 238  16:45:34  -6.28  -4.87     4.902328    0      2      
iter: 239  16:50:08  -5.80  -5.45     4.902314    0      1      
iter: 240  16:50:50  -6.22  -4.79     4.902316    0      1      
iter: 241  16:51:32  -6.52  -4.64     4.902318    0      1      
iter: 242  16:52:14  -6.63  -4.61     4.902312    0      1      
iter: 243  16:52:55  -6.73  -4.41     4.902313    0      1      
iter: 244  16:57:28  -5.94  -4.54     4.902315    0      1      
iter: 245  16:58:11  -6.53  -4.40     4.902305    0      2      
iter: 246  16:58:52  -6.81  -4.80     4.902301    0      1      
iter: 247  17:02:32  -6.05  -5.05     4.902304    0      1      
iter: 248  17:05:21  -6.04  -4.96     4.902301    0      1      
iter: 249  17:08:38  -6.06  -5.04     4.902299    0      2      
iter: 250  17:11:54  -6.05  -5.34     4.902296    0      1      
iter: 251  17:13:00  -6.29  -4.85     4.902296    0      1      
iter: 252  17:17:29  -5.82  -4.91     4.902289    0      1      
iter: 253  17:18:11  -6.20  -4.64     4.902286    0      2      
iter: 254  17:22:41  -5.81  -4.12     4.902284    0      2      
iter: 255  17:23:22  -6.25  -4.55     4.902282    0      1      
iter: 256  17:24:04  -6.56  -4.44     4.902282    0      1      
iter: 257  17:24:44  -6.81  -4.37     4.902279    0      1      
iter: 258  17:25:25  -6.91  -4.22     4.902281    0      2      
iter: 259  17:26:05  -7.14  -4.94     4.902278    0      1      
iter: 260  17:26:47  -7.23  -5.03     4.902276    0      1      
iter: 261  17:27:28  -7.27  -5.61     4.902276    0      1      
iter: 262  17:28:34  -6.94  -5.71     4.902275    0      1      
iter: 263  17:32:12  -6.07  -5.49     4.902272    0      1      
iter: 264  17:32:53  -6.57  -4.98     4.902271    0      1      
iter: 265  17:35:14  -6.36  -4.64     4.902268    0      1      
iter: 266  17:35:56  -6.64  -4.64     4.902268    0      1      
iter: 267  17:36:36  -6.87  -4.50     4.902267    0      1      
iter: 268  17:38:35  -6.67  -4.45     4.902265    0      1      
iter: 269  17:39:16  -6.99  -4.59     4.902266    0      1      
iter: 270  17:39:58  -7.19  -4.62     4.902266    0      2      
iter: 271  17:40:39  -7.27  -4.84     4.902263    0      2      
iter: 272  17:41:19  -7.29  -5.10     4.902264    0      1      
iter: 273  17:42:00  -7.37  -5.65     4.902262    0      1      
iter: 274  17:42:40  -7.36  -5.38     4.902262    0      1      
iter: 275  17:43:21  -7.41  -5.48     4.902260    0      1      

Converged after 275 iterations.

Dipole moment: (0.000467, 0.001135, -2.263615) |e|*Ang

Energy contributions relative to reference atoms: (reference = -16973.559893)

Kinetic:         -8.462329
Potential:       +8.029876
External:        +0.000000
XC:              +5.213013
Entropy (-ST):   +0.000000
Local:           +0.121701
--------------------------
Free energy:     +4.902260
Extrapolated:    +4.902260


SIC orbital centers and energies:
                                 0.50x    0.50x
          x       y       z       XC    Coulomb
--------------------------------------------------
  0  (  5.004,  5.006,  4.949):    9.478   -8.440
  1  (  5.000,  4.994,  4.988):    9.453   -8.417
  2  (  4.995,  5.000,  4.988):    9.453   -8.416
  3  (  4.597,  4.839,  7.940):    4.378   -3.993
  4  (  4.998,  4.974,  7.234):    4.106   -3.770
  5  (  5.048,  5.449,  7.907):    4.374   -3.991
  6  (  5.352,  4.751,  7.944):    4.384   -4.000
--------------------------------------------------

Total SIC energy     :      9.19710
Stabilizing potential:      0.00000
Fermi level: -4.80766

 Band  Eigenvalues  Occupancy
    0    -34.91116    2.00000
    1    -34.90478    2.00000
    2    -34.83299    2.00000
    3    -19.46693    2.00000
    4     -7.54929    2.00000
    5     -7.17677    2.00000
    6     -7.17196    2.00000
    7     -2.44336    0.00000
    8     -0.05371    0.00000
    9     -0.05317    0.00000
   10      0.55538    0.00000

Writing to NaCl-SIC.gpw (mode='all')

Timing:                              incl.     excl.
-----------------------------------------------------------
Hamiltonian:                        37.284     0.000   0.0% |
 Atomic:                             0.122     0.001   0.0% |
  XC Correction:                     0.121     0.121   0.0% |
 Calculate atomic Hamiltonians:      0.006     0.006   0.0% |
 Communicate:                        0.000     0.000   0.0% |
 Hartree integrate/restrict:         0.083     0.083   0.0% |
 Initialize Hamiltonian:             0.002     0.002   0.0% |
 Poisson:                           33.924    33.924   0.1% |
 XC 3D grid:                         3.113     3.113   0.0% |
 vbar:                               0.033     0.033   0.0% |
LCAO initialization:                 0.840     0.599   0.0% |
 LCAO eigensolver:                   0.075     0.000   0.0% |
  Calculate projections:             0.000     0.000   0.0% |
  DenseAtomicCorrection:             0.000     0.000   0.0% |
  Distribute overlap matrix:         0.000     0.000   0.0% |
  Orbital Layouts:                   0.000     0.000   0.0% |
  Potential matrix:                  0.074     0.074   0.0% |
 LCAO to grid:                       0.150     0.150   0.0% |
 Set positions (LCAO WFS):           0.016     0.000   0.0% |
  Basic WFS set positions:           0.000     0.000   0.0% |
  Basis functions set positions:     0.000     0.000   0.0% |
  TCI: Calculate S, T, P:            0.016     0.016   0.0% |
SCF-cycle:                       36752.141     0.141   0.0% |
 Density:                           37.534     0.007   0.0% |
  Atomic density matrices:           0.199     0.199   0.0% |
  Mix:                              33.730    33.730   0.1% |
  Multipole moments:                 0.048     0.048   0.0% |
  Pseudo density:                    3.550     3.542   0.0% |
   Symmetrize density:               0.007     0.007   0.0% |
 Hamiltonian:                    35950.432     0.040   0.0% |
  Atomic:                           33.683     0.243   0.0% |
   XC Correction:                   33.440    33.440   0.0% |
  Calculate atomic Hamiltonians:     1.596     1.596   0.0% |
  Communicate:                       0.002     0.002   0.0% |
  Hartree integrate/restrict:       20.788    20.788   0.0% |
  Poisson:                         491.264   491.264   0.7% |
  XC 3D grid:                    35398.530  1145.301   1.7% ||
   ODD-potentials:               34253.229    96.587   0.1% |
    Hartree:                      5524.348  5524.348   8.2% |--|
    XC:                          28632.293 28632.293  42.6% |----------------|
  vbar:                              4.530     4.530   0.0% |
 Orthonormalize:                    39.749     0.017   0.0% |
  Band Layouts:                      0.012     0.003   0.0% |
   Inverse Cholesky:                 0.009     0.009   0.0% |
  calc_s_matrix:                    11.684    11.684   0.0% |
  projections:                       2.291     2.291   0.0% |
  rotate_psi:                       25.746    25.746   0.0% |
 RMM-DIIS:                         608.056     7.813   0.0% |
  Apply hamiltonian:                60.981    60.981   0.1% |
  Calculate residuals:             105.338   105.338   0.2% |
  DIIS step:                       260.340    12.351   0.0% |
   Calculate errors:                 1.568     1.568   0.0% |
   Calculate residuals:            130.798    69.518   0.1% |
    Apply hamiltonian:              61.280    61.280   0.1% |
   Construct matrix:                15.325    15.325   0.0% |
   Linear solve:                     0.254     0.254   0.0% |
   Update trial vectors:            20.047    20.047   0.0% |
   precondition:                    79.997    79.997   0.1% |
  Find lambda:                       3.873     3.873   0.0% |
  Update psi:                        7.710     7.710   0.0% |
  precondition:                    159.285   159.285   0.2% |
  projections:                       2.717     2.717   0.0% |
 Subspace diag:                    116.228     0.025   0.0% |
  Band Layouts:                      0.027     0.006   0.0% |
   Diagonalize:                      0.017     0.017   0.0% |
   Distribute results:               0.005     0.005   0.0% |
  calc_h_matrix:                    62.676    25.532   0.0% |
   Apply hamiltonian:               37.145    37.145   0.1% |
  rotate_psi:                       53.499    53.499   0.1% |
Set symmetry:                        0.000     0.000   0.0% |
Other:                           30460.061 30460.061  45.3% |-----------------|
-----------------------------------------------------------
Total:                                     67250.326 100.0%

Memory usage: 1.35 GiB
Date: Thu Mar 15 02:11:00 2018
