
  ___ ___ ___ _ _ _  
 |   |   |_  | | | | 
 | | | | | . | | | | 
 |__ |  _|___|_____|  1.2.0
 |___|_|             

User:   user@ubuntu
Date:   Thu Mar 15 02:11:00 2018
Arch:   x86_64
Pid:    33778
Python: 3.6.3
gpaw:   /usr/lib/python3/dist-packages/gpaw
_gpaw:  /usr/lib/python3/dist-packages/_gpaw.cpython-36m-x86_64-linux-gnu.so
ase:    /home/user/.local/lib/python3.6/site-packages/ase (version 3.15.0)
numpy:  /home/user/.local/lib/python3.6/site-packages/numpy (version 1.14.2)
scipy:  /home/user/.local/lib/python3.6/site-packages/scipy (version 1.0.0)
units:  Angstrom and eV
cores:  1

Input parameters:
  basis: dzp
  eigensolver: rmm-diis
  h: 0.14
  nbands: 16
  xc: PBE0

System changes: positions, numbers, cell, pbc, initial_charges, initial_magmoms 

Initialize ...

Na-setup:
  name: Sodium
  id: d7ecbc49209718622bcbe287195dca2a
  Z: 11
  valence: 7
  core: 4
  charge: 0.0
  file: /usr/share/gpaw-setups/Na.PBE.gz
  cutoffs: 1.18(comp), 2.17(filt), 2.59(core), lmax=2
  valence states:
                energy  radius
    3s(1.00)    -2.744   1.201
    2p(6.00)   -28.672   1.217
    3p(0.00)    -0.743   1.217
    *s          24.468   1.201
    *d           0.000   1.238

  LCAO basis set for Na:
    Name: dzp
    File: /usr/share/gpaw-setups/Na.dzp.basis.gz
    Number of radial functions: 7
    Number of spherical harmonics: 17
      l=0, rc=11.4062 Bohr: 3s-sz confined orbital
      l=1, rc=3.6719 Bohr: 2p-sz confined orbital
      l=1, rc=15.9375 Bohr: 3p-sz confined orbital
      l=0, rc=6.9531 Bohr: 3s-dz split-valence wave
      l=1, rc=2.4219 Bohr: 2p-dz split-valence wave
      l=1, rc=10.0469 Bohr: 3p-dz split-valence wave
      l=1, rc=11.4062 Bohr: p-type Gaussian polarization

Cl-setup:
  name: Chlorine
  id: 726897f06f34e53cf8e33b5885a02604
  Z: 17
  valence: 7
  core: 10
  charge: 0.0
  file: /usr/share/gpaw-setups/Cl.PBE.gz
  cutoffs: 0.79(comp), 1.40(filt), 1.49(core), lmax=2
  valence states:
                energy  radius
    3s(2.00)   -20.689   0.794
    3p(5.00)    -8.594   0.794
    *s           6.523   0.794
    *p          18.617   0.794
    *d           0.000   0.794

  LCAO basis set for Cl:
    Name: dzp
    File: /usr/share/gpaw-setups/Cl.dzp.basis.gz
    Number of radial functions: 5
    Number of spherical harmonics: 13
      l=0, rc=5.1719 Bohr: 3s-sz confined orbital
      l=1, rc=6.2656 Bohr: 3p-sz confined orbital
      l=0, rc=2.8281 Bohr: 3s-dz split-valence wave
      l=1, rc=3.5156 Bohr: 3p-dz split-valence wave
      l=2, rc=6.2656 Bohr: d-type Gaussian polarization

Reference energy: -16973.559893

Spin-paired calculation

Occupation numbers:
  Fermi-Dirac: width=0.0000 eV

Convergence criteria:
  Maximum total energy change: 0.0005 eV / electron
  Maximum integral of absolute density change: 0.0001 electrons
  Maximum integral of absolute eigenstate change: 4e-08 eV^2
  Maximum number of iterations: 333

Symmetries present (total): 1

  ( 1  0  0)
  ( 0  1  0)
  ( 0  0  1)

1 k-point (Gamma)
1 k-point in the irreducible part of the Brillouin zone
       k-points in crystal coordinates                weights
   0:     0.00000000    0.00000000    0.00000000          1/1

Wave functions: Uniform real-space grid
  Kinetic energy operator: 6*3+1=19 point O(h^6) finite-difference Laplacian
  Eigensolver: None  MatrixOperator buffer_size: default value or 
                              see value of nblock in input file
Diagonalizer layout: Serial LAPACKOrthonormalizer layout: Serial LAPACK 

RMM-DIIS eigensolver
       keep_htpsit: True
       Block size: 10
       DIIS iterations: 3
       Threshold for DIIS: 1.0e-16
       Limit lambda: False
       use_rayleigh: False
       trial_step: 0.1 

Densities:
  Coarse grid: 72*72*92 grid
  Fine grid: 144*144*184 grid
  Total Charge: 0.000000 

Density mixing:
  Method: separate
  Backend: pulay
  Linear mixing parameter: 0.25
  Mixing with 3 old densities
  No damping of long wave oscillations 

Hamiltonian:
  XC and Coulomb potentials evaluated on a 144*144*184 grid
  Using the PBE0 Exchange-Correlation functional
  Interpolation: tri-quintic (5. degree polynomial)
  Poisson solver: Jacobi solver with 4 multi-grid levels
    Coarsest grid: 18 x 18 x 23 points
    Stencil: 6*3+1=19 point O(h^6) finite-difference Laplacian
    Tolerance: 2.000000e-10
    Max iterations: 1000 

Memory estimate:
  Process memory now: 1377.48 MiB
  Calculator: 448.81 MiB
    Density: 130.32 MiB
      Arrays: 92.65 MiB
      Localized functions: 16.67 MiB
      Mixer: 21.00 MiB
    Hamiltonian: 130.98 MiB
      Arrays: 60.60 MiB
      XC: 0.00 MiB
      Poisson: 69.15 MiB
      vbar: 1.23 MiB
    Wavefunctions: 187.50 MiB
      Arrays psit_nG: 56.00 MiB
      Eigensolver: 73.50 MiB
      Projections: 0.00 MiB
      Projectors: 2.01 MiB
      Overlap op: 56.00 MiB

Total number of cores used: 1

Number of atoms: 2
Number of atomic orbitals: 30
Number of bands in calculation: 16
Bands to converge: occupied states only
Number of valence electrons: 14

... initialized

Initializing position-dependent things.

Density initialized from atomic densities
Creating initial wave functions:
  16 bands from LCAO basis set

       .------------------------.  
      /|                        |  
     / |                        |  
    /  |                        |  
   /   |                        |  
  /    |                        |  
 *     |                        |  
 |     |                        |  
 |     |                        |  
 |     |         Cl             |  
 |     |                        |  
 |     |                        |  
 |     |                        |  
 |     |         Na             |  
 |     |                        |  
 |     |                        |  
 |     .------------------------.  
 |    /                        /   
 |   /                        /    
 |  /                        /     
 | /                        /      
 |/                        /       
 *------------------------*        

Positions:
   0 Na     5.000000    5.000000    5.000000
   1 Cl     5.000000    5.000000    7.820000

Unit cell:
           periodic     x           y           z      points  spacing
  1. axis:    no    10.000000    0.000000    0.000000    72     0.1389
  2. axis:    no     0.000000   10.000000    0.000000    72     0.1389
  3. axis:    no     0.000000    0.000000   12.820000    92     0.1393

                     log10-error:    total        iterations:
           time      wfs    density  energy       fermi  poisson
iter:   1  02:11:43  +2.84   +inf   276.855845    0      50     
iter:   2  02:14:37  +1.40   +inf   169.735414    0             
iter:   3  02:17:24  +1.99   +inf    83.944901    0             
iter:   4  02:20:35  +1.42  -0.95    -4.873293    0      30     
iter:   5  02:23:47  -0.28  -1.13    -4.768987    0      29     
iter:   6  02:26:59  -0.41  -1.27    -5.057814    0      30     
iter:   7  02:30:15  -0.47  -1.59    -5.206028    0      28     
iter:   8  02:33:22  -0.51  -2.32    -5.329238    0      13     
iter:   9  02:36:23  -0.60  -2.71    -5.302542    0      10     
iter:  10  02:39:25  -0.63  -2.69    -5.308045    0      7      
iter:  11  02:42:27  -0.64  -2.69    -5.321076    0      4      
iter:  12  02:45:26  -0.63  -2.46    -5.318620    0      5      
iter:  13  02:48:27  -0.61  -2.24    -5.326062    0      5      
iter:  14  02:51:28  -0.65  -2.04    -5.330300    0      10     
iter:  15  02:54:29  -0.64  -1.97    -5.327793    0      6      
iter:  16  02:57:32  -0.63  -1.91    -5.386718    0      11     
iter:  17  03:00:45  -0.68  -1.95    -5.356521    0      22     
iter:  18  03:03:53  -0.62  -2.55    -5.405843    0      14     
iter:  19  03:07:01  -0.61  -2.33    -5.376942    0      15     
iter:  20  03:10:06  -0.57  -2.51    -5.384430    0      5      
iter:  21  03:13:19  -0.53  -2.37    -5.384124    0      13     
iter:  22  03:16:26  -0.48  -2.35    -5.377830    0      7      
iter:  23  03:19:39  -0.37  -2.42    -5.378786    0      17     
iter:  24  03:22:48  -0.33  -2.49    -5.335148    0      11     
iter:  25  03:25:47  -0.28  -2.87    -5.339979    0      10     
iter:  26  03:28:49  -0.23  -3.13    -5.335871    0      5      
iter:  27  03:31:48  -0.17  -3.04    -5.332820    0      4      
iter:  28  03:34:49  -0.11  -2.86    -5.327315    0      4      
iter:  29  03:37:50  -0.05  -2.83    -5.316748    0      7      
iter:  30  03:40:53  +0.02  -2.76    -5.310845    0      9      
iter:  31  03:44:00  +0.08  -2.63    -5.296079    0      9      
iter:  32  03:47:05  +0.14  -2.68    -5.285212    0      9      
iter:  33  03:50:14  +0.22  -2.48    -5.273516    0      12     
iter:  34  03:53:17  +0.28  -2.68    -5.250465    0      10     
iter:  35  03:56:20  +0.35  -2.51    -5.232248    0      13     
iter:  36  03:59:23  +0.42  -2.62    -5.207316    0      11     
iter:  37  04:02:23  +0.49  -2.46    -5.179857    0      9      
iter:  38  04:05:28  +0.56  -2.59    -5.151906    0      12     
iter:  39  04:08:31  +0.64  -2.54    -5.111300    0      8      
iter:  40  04:11:34  +0.71  -2.63    -5.066869    0      8      
iter:  41  04:14:40  +0.78  -2.87    -5.017480    0      10     
