34
Lattice="11.087434329005065 0.0 0.0 5.5437171645025325 9.601999791710057 0.0 0.0 0.0 22.263213055223332" Properties=species:S:1:pos:R:3:Z:I:1:tags:I:1:forces:R:3 energy=10.779083977882522 free_energy=10.779083977882522 pbc="T T F"
Pt       0.00000000       1.60033330      10.00000000       78        2      -0.00000000       0.00940128       0.73471104 
Pt       2.77185858       1.60033330      10.00000000       78        2       0.00040257       0.00023242       0.74780849 
Pt       5.54371716       1.60033330      10.00000000       78        2      -0.00000000       0.00000445       0.74851410 
Pt       8.31557575       1.60033330      10.00000000       78        2      -0.00040257       0.00023242       0.74780849 
Pt       1.38592929       4.00083325      10.00000000       78        2       0.00001248       0.00020697       0.74824822 
Pt       4.15778787       4.00083325      10.00000000       78        2       0.00000385      -0.00000222       0.74851410 
Pt       6.92964646       4.00083325      10.00000000       78        2      -0.00000385      -0.00000222       0.74851410 
Pt       9.70150504       4.00083325      10.00000000       78        2      -0.00001248       0.00020697       0.74824822 
Pt       2.77185858       6.40133319      10.00000000       78        2      -0.00017301      -0.00011429       0.74824822 
Pt       5.54371716       6.40133319      10.00000000       78        2      -0.00000000      -0.00046485       0.74780849 
Pt       8.31557575       6.40133319      10.00000000       78        2       0.00017301      -0.00011429       0.74824822 
Pt      11.08743433       6.40133319      10.00000000       78        2      -0.00000000      -0.00000000       0.74851998 
Pt       4.15778787       8.80183314      10.00000000       78        2      -0.00814175      -0.00470064       0.73471104 
Pt       6.92964646       8.80183314      10.00000000       78        2       0.00814175      -0.00470064       0.73471104 
Pt       9.70150504       8.80183314      10.00000000       78        2       0.00018548      -0.00009268       0.74824822 
Pt      12.47336362       8.80183314      10.00000000       78        2      -0.00018548      -0.00009268       0.74824822 
Pt       0.00000000       0.00000000      12.26321306       78        1       0.00000000      -0.00000000      -0.77365060 
Pt       2.77185858       0.00000000      12.26321306       78        1       0.00567824       0.00000174      -0.73742259 
Pt       5.54371716       0.00000000      12.26321306       78        1       0.00000000       0.00000000      -0.74852336 
Pt       8.31557575       0.00000000      12.26321306       78        1      -0.00567824       0.00000174      -0.73742259 
Pt       1.38592929       2.40049995      12.26321306       78        1       0.00284063       0.00491663      -0.73742259 
Pt       4.15778787       2.40049995      12.26321306       78        1       0.00019831       0.00011450      -0.74835470 
Pt       6.92964646       2.40049995      12.26321306       78        1      -0.00019831       0.00011450      -0.74835470 
Pt       9.70150504       2.40049995      12.26321306       78        1      -0.00284063       0.00491663      -0.73742259 
Pt       2.77185858       4.80099990      12.26321306       78        1       0.00000000      -0.00000000      -0.74852336 
Pt       5.54371716       4.80099990      12.26321306       78        1      -0.00000000      -0.00022899      -0.74835470 
Pt       8.31557575       4.80099990      12.26321306       78        1      -0.00000000      -0.00000000      -0.74852336 
Pt      11.08743433       4.80099990      12.26321306       78        1      -0.00000000       0.00022908      -0.74835464 
Pt       4.15778787       7.20149984      12.26321306       78        1      -0.00283762      -0.00491837      -0.73742259 
Pt       6.92964646       7.20149984      12.26321306       78        1       0.00283762      -0.00491837      -0.73742259 
Pt       9.70150504       7.20149984      12.26321306       78        1       0.00019839      -0.00011454      -0.74835464 
Pt      12.47336362       7.20149984      12.26321306       78        1      -0.00019839      -0.00011454      -0.74835464 
O      -0.00000000       0.00000000      14.59215922        8        0       0.00000000      -0.00000000       0.03993829 
O      -0.00000000       0.00000000      15.75230860        8        0       0.00000000      -0.00000000      -0.03716426 
