
  ___ ___ ___ _ _ _  
 |   |   |_  | | | | 
 | | | | | . | | | | 
 |__ |  _|___|_____|  0.11.0.13004
 |___|_|             

User:  vladislav@vladislav-ThinkPad-T530
Date:  Sat Dec  5 15:53:31 2015
Arch:  x86_64
Pid:   31155
gpaw:  /usr/lib/python2.7/dist-packages/gpaw
_gpaw: /usr/bin/gpaw-python
ase:   /usr/lib/python2.7/dist-packages/ase (version 3.9.1.4567)
numpy: /usr/lib/python2.7/dist-packages/numpy (version 1.8.2)
scipy: /usr/lib/python2.7/dist-packages/scipy (version 0.14.1)
units: Angstrom and eV
cores: 4

Memory estimate
---------------
Process memory now: 74.37 MiB
Calculator  240.25 MiB
    Density  75.20 MiB
        Arrays  58.03 MiB
        Localized functions  4.07 MiB
        Mixer  13.10 MiB
    Hamiltonian  81.58 MiB
        Arrays  37.96 MiB
        XC  0.00 MiB
        Poisson  43.32 MiB
        vbar  0.30 MiB
    Wavefunctions  83.47 MiB
        Arrays psit_nG  24.02 MiB
        Eigensolver  34.94 MiB
        Projections  0.00 MiB
        Projectors  0.49 MiB
        Overlap op  24.02 MiB

Positions:
  0 Na    7.0000    7.0000    7.0000
  1 Cl    7.0000    7.0000    9.8200

          .---------------------------------.  
         /|                                 |  
        / |                                 |  
       /  |                                 |  
      /   |                                 |  
     /    |                                 |  
    /     |                                 |  
   /      |                                 |  
  /       |                                 |  
 *        |                                 |  
 |        |                                 |  
 |        |                                 |  
 |        |                                 |  
 |        |            Cl                   |  
 |        |                                 |  
 |        |                                 |  
 |        |                                 |  
 |        |            Na                   |  
 |        |                                 |  
 |        |                                 |  
 |        |                                 |  
 |        .---------------------------------.  
 |       /                                 /   
 |      /                                 /    
 |     /                                 /     
 |    /                                 /      
 |   /                                 /       
 |  /                                 /        
 | /                                 /         
 |/                                 /          
 *---------------------------------*           

Unit Cell:
           Periodic     X           Y           Z      Points  Spacing
  --------------------------------------------------------------------
  1. axis:    no    14.000000    0.000000    0.000000   100     0.1400
  2. axis:    no     0.000000   14.000000    0.000000   100     0.1400
  3. axis:    no     0.000000    0.000000   16.820000   120     0.1402

Na-setup:
  name   : Sodium
  id     : f62e55807af4ebbc27608dea0e9821eb
  Z      : 11
  valence: 7
  core   : 4
  charge : 0.0
  file   : /usr/share/gpaw-setups/Na.GLLBSC.gz
  cutoffs: 1.18(comp), 2.17(filt), 2.51(core), lmax=2
  valence states:
            energy   radius
    3s(1.00)  -3.912   1.201
    2p(6.00) -30.109   1.217
    3p(0.00)  -2.230   1.217
    *s      23.299   1.201
    *d       0.000   1.238

Using partial waves for Na as LCAO basis

Cl-setup:
  name   : Chlorine
  id     : 09f58f9f27950b443210bc712db7c002
  Z      : 17
  valence: 7
  core   : 10
  charge : 0.0
  file   : /usr/share/gpaw-setups/Cl.GLLBSC.gz
  cutoffs: 0.79(comp), 1.40(filt), 1.49(core), lmax=2
  valence states:
            energy   radius
    3s(2.00) -24.525   0.794
    3p(5.00) -12.463   0.794
    *s       2.686   0.794
    *p      14.748   0.794
    *d       0.000   0.794

Using partial waves for Cl as LCAO basis

Using the GLLBSC Exchange-Correlation Functional.
Spin-Paired Calculation
Total Charge: 0.000000
Fermi Temperature: 0.000000
Wave functions: Uniform real-space grid
Kinetic energy operator: 6*3+1=19 point O(h^6) finite-difference Laplacian
Eigensolver: RMM-DIIS eigensolver
       keep_htpsit: True
       Block size: 10
       DIIS iterations: 3
       Threshold for DIIS: 1.0e-16
       Limit lambda: False
       use_rayleigh: False
       trial_step: 0.1
XC and Coulomb potentials evaluated on a 200*200*240 grid
Interpolation: tri-quintic (5. degree polynomial)
Poisson solver: Jacobi solver with 4 multi-grid levels
    Coarsest grid: 25 x 25 x 30 points
    Warning: Coarse grid has more than 24 points.
             More multi-grid levels recommended.
    Stencil: 6*3+1=19 point O(h^6) finite-difference Laplacian
    Tolerance: 2.000000e-10
    Max iterations: 1000
Reference Energy: -16942.943235

Total number of cores used: 4
Domain Decomposition: 1 x 2 x 2
MatrixOperator buffer_size: default value or 
                            see value of nblock in input file
Diagonalizer layout: Serial LAPACK
Orthonormalizer layout: Serial LAPACK

Symmetries present (total): 1

  ( 1  0  0)
  ( 0  1  0)
  ( 0  0  1)

1 k-point (Gamma)
1 k-point in the Irreducible Part of the Brillouin Zone

          k-points in crystal coordinates                weights
   0:     0.00000000    0.00000000    0.00000000          1/1

Mixer Type: Mixer
Linear Mixing Parameter: 0.25
Mixing with 3 Old Densities
No Damping of Long Wave Oscillations

Convergence Criteria:
    Total Energy Change: 0.0005 eV / electron
    Integral of Absolute Density Change: 0.0001 electrons
    Integral of Absolute Eigenstate Change: 4e-08 eV^2
Number of Atoms: 2
Number of Atomic Orbitals: 11
Number of Bands in Calculation: 11
Bands to Converge: Occupied States Only
Number of Valence Electrons: 14
                     log10-error:    Total        Iterations:
           Time      WFS    Density  Energy       Fermi  Poisson
iter:   1  15:54:32  +2.78          -40.515616    0      78     
iter:   2  15:54:35  +0.04          -41.727478    0             
iter:   3  15:54:37  -0.58          -41.909653    0             
iter:   4  15:55:14  +0.33  -0.85    -7.605869    0      47     
iter:   5  15:55:51  +0.12  -1.08    -4.969599    0      48     
iter:   6  15:56:15  -0.37  -1.24    -5.226627    0      27     
iter:   7  15:56:44  -0.88  -1.30    -4.968264    0      35     
iter:   8  15:57:11  -1.22  -1.58    -4.776984    0      32     
iter:   9  15:57:38  -1.13  -1.71    -4.554835    0      33     
iter:  10  15:58:04  -1.42  -1.80    -4.357182    0      30     
iter:  11  15:58:25  -1.58  -1.98    -4.288853    0      23     
iter:  12  15:58:48  -1.68  -2.20    -4.178812    0      26     
iter:  13  15:59:03  -1.70  -2.62    -4.221704    0      13     
iter:  14  15:59:11  -1.82  -2.37    -4.217241    0      4      
iter:  15  15:59:25  -1.81  -2.50    -4.203703    0      12     
iter:  16  15:59:36  -1.86  -2.46    -4.216728    0      7      
iter:  17  15:59:44  -1.84  -2.49    -4.216682    0      3      
iter:  18  15:59:59  -1.86  -2.39    -4.191551    0      13     
iter:  19  16:00:16  -1.83  -2.56    -4.240509    0      17     
iter:  20  16:00:34  -1.82  -2.29    -4.184339    0      19     
iter:  21  16:00:48  -1.90  -2.65    -4.206862    0      12     
iter:  22  16:01:00  -1.86  -2.73    -4.214867    0      8      
iter:  23  16:01:11  -1.84  -2.71    -4.193994    0      8      
iter:  24  16:01:19  -1.89  -2.81    -4.201337    0      4      
iter:  25  16:01:33  -1.86  -2.69    -4.221819    0      12     
iter:  26  16:01:49  -1.90  -2.82    -4.249572    0      13     
iter:  27  16:01:59  -1.84  -2.84    -4.258497    0      6      
iter:  28  16:02:10  -1.76  -2.56    -4.244287    0      6      
iter:  29  16:02:21  -1.83  -2.97    -4.240122    0      7      
iter:  30  16:02:31  -1.88  -2.72    -4.232102    0      7      
iter:  31  16:02:41  -1.83  -3.07    -4.228263    0      6      
iter:  32  16:02:54  -1.86  -2.76    -4.214283    0      10     
iter:  33  16:03:02  -1.85  -3.35    -4.214377    0      3      
iter:  34  16:03:10  -1.86  -2.84    -4.210165    0      3      
iter:  35  16:03:18  -1.77  -3.15    -4.213341    0      2      
iter:  36  16:03:25  -1.88  -2.87    -4.210490    0      2      
iter:  37  16:03:33  -1.77  -3.15    -4.212024    0      3      
iter:  38  16:03:42  -1.87  -2.89    -4.208214    0      4      
iter:  39  16:03:50  -1.82  -3.17    -4.210902    0      3      
iter:  40  16:03:57  -1.87  -2.90    -4.209805    0      1      
iter:  41  16:04:05  -1.84  -3.28    -4.210004    0      3      
iter:  42  16:04:13  -1.88  -2.91    -4.211019    0      3      
iter:  43  16:04:22  -1.87  -3.40    -4.209591    0      4      
iter:  44  16:04:30  -1.87  -2.90    -4.210570    0      4      
iter:  45  16:04:39  -1.88  -3.47    -4.212530    0      3      
iter:  46  16:04:47  -1.85  -2.89    -4.205783    0      4      
iter:  47  16:04:57  -1.87  -3.23    -4.216378    0      5      
iter:  48  16:05:05  -1.86  -2.81    -4.209806    0      3      
iter:  49  16:05:11  -1.87  -4.22    -4.213084    0      1      
iter:  50  16:05:18  -1.85  -2.78    -4.209630    0      1      
iter:  51  16:05:25  -1.87  -4.18    -4.212846    0      1      
iter:  52  16:05:32  -1.86  -2.78    -4.209643    0      1      
iter:  53  16:05:38  -1.86  -4.12    -4.212700    0      1      
iter:  54  16:05:45  -1.86  -2.78    -4.209735    0      1      
iter:  55  16:05:52  -1.86  -4.07    -4.212458    0      1      
iter:  56  16:06:00  -1.85  -2.78    -4.210168    0      2      
iter:  57  16:06:08  -1.86  -3.87    -4.212316    0      3      
iter:  58  16:06:15  -1.86  -2.77    -4.208789    0      2      
iter:  59  16:06:22  -1.86  -4.27    -4.212549    0      1      
iter:  60  16:06:29  -1.85  -2.77    -4.208672    0      1      
iter:  61  16:06:35  -1.86  -4.31    -4.212308    0      1      
iter:  62  16:06:42  -1.85  -2.76    -4.208891    0      1      
iter:  63  16:06:49  -1.86  -4.33    -4.212135    0      1      
iter:  64  16:06:56  -1.86  -2.77    -4.209046    0      1      
iter:  65  16:07:02  -1.86  -4.27    -4.212215    0      1      
iter:  66  16:07:10  -1.86  -2.77    -4.209094    0      2      
iter:  67  16:07:17  -1.86  -4.15    -4.212413    0      2      
iter:  68  16:07:24  -1.86  -2.78    -4.209300    0      1      
iter:  69  16:07:31  -1.85  -4.02    -4.212294    0      1      
