
  ___ ___ ___ _ _ _  
 |   |   |_  | | | | 
 | | | | | . | | | | 
 |__ |  _|___|_____|  0.11.0.13004
 |___|_|             

User:  vladislav@vladislav-ThinkPad-T530
Date:  Sat Dec  5 13:31:27 2015
Arch:  x86_64
Pid:   27155
gpaw:  /usr/lib/python2.7/dist-packages/gpaw
_gpaw: /usr/bin/gpaw-python
ase:   /usr/lib/python2.7/dist-packages/ase (version 3.9.1.4567)
numpy: /usr/lib/python2.7/dist-packages/numpy (version 1.8.2)
scipy: /usr/lib/python2.7/dist-packages/scipy (version 0.14.1)
units: Angstrom and eV
cores: 4

Memory estimate
---------------
Process memory now: 689.69 MiB
Calculator  97.39 MiB
    Density  32.14 MiB
        Arrays  22.85 MiB
        Localized functions  4.17 MiB
        Mixer  5.12 MiB
    Hamiltonian  32.33 MiB
        Arrays  14.95 MiB
        XC  0.00 MiB
        Poisson  17.07 MiB
        vbar  0.31 MiB
    Wavefunctions  32.92 MiB
        Arrays psit_nG  9.38 MiB
        Eigensolver  13.65 MiB
        Projections  0.00 MiB
        Projectors  0.50 MiB
        Overlap op  9.39 MiB

Positions:
  0 Na    5.0000    5.0000    5.0000
  1 Cl    5.0000    5.0000    7.8200

       .------------------------.  
      /|                        |  
     / |                        |  
    /  |                        |  
   /   |                        |  
  /    |                        |  
 *     |                        |  
 |     |                        |  
 |     |                        |  
 |     |         Cl             |  
 |     |                        |  
 |     |                        |  
 |     |                        |  
 |     |         Na             |  
 |     |                        |  
 |     |                        |  
 |     .------------------------.  
 |    /                        /   
 |   /                        /    
 |  /                        /     
 | /                        /      
 |/                        /       
 *------------------------*        

Unit Cell:
           Periodic     X           Y           Z      Points  Spacing
  --------------------------------------------------------------------
  1. axis:    no    10.000000    0.000000    0.000000    72     0.1389
  2. axis:    no     0.000000   10.000000    0.000000    72     0.1389
  3. axis:    no     0.000000    0.000000   12.820000    92     0.1393

Na-setup:
  name   : Sodium
  id     : d7ecbc49209718622bcbe287195dca2a
  Z      : 11
  valence: 7
  core   : 4
  charge : 0.0
  file   : /usr/share/gpaw-setups/Na.PBE.gz
  cutoffs: 1.18(comp), 2.17(filt), 2.59(core), lmax=2
  valence states:
            energy   radius
    3s(1.00)  -2.744   1.201
    2p(6.00) -28.672   1.217
    3p(0.00)  -0.743   1.217
    *s      24.468   1.201
    *d       0.000   1.238

Using partial waves for Na as LCAO basis

Cl-setup:
  name   : Chlorine
  id     : 726897f06f34e53cf8e33b5885a02604
  Z      : 17
  valence: 7
  core   : 10
  charge : 0.0
  file   : /usr/share/gpaw-setups/Cl.PBE.gz
  cutoffs: 0.79(comp), 1.40(filt), 1.49(core), lmax=2
  valence states:
            energy   radius
    3s(2.00) -20.689   0.794
    3p(5.00)  -8.594   0.794
    *s       6.523   0.794
    *p      18.617   0.794
    *d       0.000   0.794

Using partial waves for Cl as LCAO basis

Using the PBE-PZ-SIC Exchange-Correlation Functional.
Spin-Paired Calculation
Total Charge: 0.000000
Fermi Temperature: 0.000000
Wave functions: Uniform real-space grid
Kinetic energy operator: 6*3+1=19 point O(h^6) finite-difference Laplacian
Eigensolver: RMM-DIIS eigensolver
       keep_htpsit: True
       Block size: 1
       DIIS iterations: 3
       Threshold for DIIS: 1.0e-16
       Limit lambda: False
       use_rayleigh: False
       trial_step: 0.1
XC and Coulomb potentials evaluated on a 144*144*184 grid
Interpolation: tri-quintic (5. degree polynomial)
Poisson solver: Jacobi solver with 4 multi-grid levels
    Coarsest grid: 18 x 18 x 23 points
    Stencil: 6*3+1=19 point O(h^6) finite-difference Laplacian
    Tolerance: 2.000000e-10
    Max iterations: 1000
Reference Energy: -16973.565901

Total number of cores used: 4
Domain Decomposition: 1 x 2 x 2
MatrixOperator buffer_size: default value or 
                            see value of nblock in input file
Diagonalizer layout: Serial LAPACK
Orthonormalizer layout: Serial LAPACK

Symmetries present (total): 1

  ( 1  0  0)
  ( 0  1  0)
  ( 0  0  1)

1 k-point (Gamma)
1 k-point in the Irreducible Part of the Brillouin Zone

          k-points in crystal coordinates                weights
   0:     0.00000000    0.00000000    0.00000000          1/1

Mixer Type: Mixer
Linear Mixing Parameter: 0.25
Mixing with 3 Old Densities
No Damping of Long Wave Oscillations

Convergence Criteria:
    Total Energy Change: 0.0005 eV / electron
    Integral of Absolute Density Change: 0.0001 electrons
    Integral of Absolute Eigenstate Change: 4e-08 eV^2
Number of Atoms: 2
Number of Atomic Orbitals: 11
Number of Bands in Calculation: 11
Bands to Converge: Occupied States Only
Number of Valence Electrons: 14
                     log10-error:    Total        Iterations:
           Time      WFS    Density  Energy       Fermi  Poisson
iter:   1  13:31:44  +1.26           -5.662962    0      50     
iter:   2  13:31:45  -0.92           -5.750454    0             
iter:   3  13:31:46  -1.31           -5.774096    0             
iter:   4  13:32:55  -0.05  -0.96     5.043391    0      30     
iter:   5  13:33:40  +0.06  -1.09     5.491861    0      32     
iter:   6  13:34:11  -0.43  -1.26     4.964764    0      21     
iter:   7  13:34:36  -0.62  -1.36     4.875999    0      28     
iter:   8  13:35:05  -0.29  -1.45     5.103791    0      28     
iter:   9  13:35:33  -0.74  -1.76     4.993773    0      19     
iter:  10  13:35:55  -0.82  -2.01     4.944834    0      13     
iter:  11  13:36:16  -1.01  -1.80     4.919571    0      12     
iter:  12  13:36:38  -1.37  -1.80     4.933235    0      20     
iter:  13  13:36:59  -1.58  -2.26     4.928297    0      14     
iter:  14  13:37:23  -1.77  -2.56     4.920870    0      10     
iter:  15  13:37:45  -1.97  -2.37     4.916298    0      9      
iter:  16  13:38:07  -2.12  -2.43     4.913957    0      9      
iter:  17  13:38:29  -2.26  -2.44     4.911108    0      8      
iter:  18  13:38:51  -2.45  -2.57     4.909352    0      13     
iter:  19  13:39:09  -2.56  -2.83     4.908263    0      10     
iter:  20  13:39:27  -2.66  -2.90     4.907133    0      9      
iter:  21  13:39:43  -2.75  -3.13     4.906242    0      5      
iter:  22  13:40:01  -2.83  -3.19     4.905610    0      4      
iter:  23  13:40:18  -2.87  -3.15     4.904446    0      8      
iter:  24  13:40:39  -2.96  -2.83     4.904658    0      8      
iter:  25  13:40:54  -3.03  -2.98     4.904223    0      3      
iter:  26  13:41:10  -3.12  -2.94     4.903879    0      5      
iter:  27  13:41:30  -3.05  -2.93     4.902754    0      11     
iter:  28  13:42:08  -3.20  -2.64     4.903437    0      13     
iter:  29  13:42:27  -3.25  -3.07     4.903328    0      9      
iter:  30  13:42:47  -3.34  -3.27     4.903041    0      8      
iter:  31  13:43:06  -3.43  -3.36     4.902914    0      7      
iter:  32  13:43:49  -3.53  -3.75     4.902881    0      3      
iter:  33  13:44:55  -3.50  -3.83     4.902630    0      2      
iter:  34  13:45:22  -3.62  -3.67     4.902122    0      2      
iter:  35  13:45:48  -3.73  -3.41     4.902367    0      2      
iter:  36  13:46:55  -3.79  -3.40     4.902407    0      4      
iter:  37  13:47:32  -3.86  -3.49     4.902381    0      4      
iter:  38  13:48:03  -3.92  -3.59     4.902347    0      6      
iter:  39  13:48:51  -4.00  -3.86     4.901928    0      3      
iter:  40  13:49:07  -4.06  -3.86     4.902140    0      2      
iter:  41  13:49:23  -4.13  -3.98     4.902109    0      2      
iter:  42  13:49:43  -4.20  -4.03     4.902078    0      1      
iter:  43  13:50:06  -4.26  -3.91     4.902040    0      3      
iter:  44  13:50:27  -4.33  -4.07     4.902017    0      2      
iter:  45  13:50:44  -4.38  -4.16     4.902080    0      4      
iter:  46  13:51:01  -4.46  -4.39     4.901860    0      2      
iter:  47  13:53:07  -4.50  -4.18     4.901838    0      2      
iter:  48  13:53:27  -4.58  -4.21     4.901762    0      2      
iter:  49  13:53:42  -4.64  -3.97     4.901768    0      1      
iter:  50  13:53:59  -4.68  -3.91     4.902006    0      3      
iter:  51  13:56:05  -4.71  -4.54     4.902051    0      3      
iter:  52  13:57:22  -4.80  -4.31     4.901813    0      2      
iter:  53  13:57:53  -4.87  -4.42     4.901679    0      1      
iter:  54  13:58:24  -4.94  -4.27     4.901751    0      2      
iter:  55  13:58:39  -5.00  -4.13     4.901701    0      1      
iter:  56  13:58:55  -5.03  -4.07     4.901689    0      2      
iter:  57  13:59:18  -5.04  -3.88     4.901535    0      3      
iter:  58  13:59:42  -5.14  -3.70     4.901879    0      3      
iter:  59  13:59:58  -5.22  -4.13     4.901855    0      2      
iter:  60  14:00:15  -5.22  -4.30     4.901896    0      3      
iter:  61  14:01:10  -5.32  -4.89     4.901823    0      2      
iter:  62  14:02:04  -5.37  -4.54     4.901632    0      1      
iter:  63  14:02:58  -5.43  -4.50     4.901766    0      1      
iter:  64  14:03:52  -5.49  -4.39     4.901758    0      1      
iter:  65  14:04:33  -5.55  -4.26     4.901633    0      1      
iter:  66  14:04:47  -5.65  -4.22     4.901929    0      1      
iter:  67  14:05:02  -5.67  -4.21     4.901582    0      2      
iter:  68  14:05:17  -5.75  -3.92     4.901786    0      3      
iter:  69  14:05:33  -5.76  -4.48     4.901885    0      2      
iter:  70  14:05:48  -5.89  -4.66     4.901806    0      1      
iter:  71  14:06:03  -5.90  -5.26     4.901793    0      1      
iter:  72  14:06:17  -6.01  -5.09     4.901722    0      1      
iter:  73  14:06:33  -5.89  -4.83     4.901724    0      1      
iter:  74  14:06:47  -6.06  -4.74     4.901686    0      1      
iter:  75  14:07:15  -5.76  -4.48     4.901684    0      1      
iter:  76  14:07:29  -6.00  -4.40     4.901694    0      1      
iter:  77  14:07:44  -5.98  -4.36     4.901716    0      1      
iter:  78  14:07:59  -6.14  -4.22     4.901652    0      2      
iter:  79  14:08:14  -6.15  -4.35     4.901747    0      1      
iter:  80  14:08:28  -6.30  -4.27     4.901468    0      1      
iter:  81  14:08:43  -6.27  -4.26     4.901814    0      1      
iter:  82  14:08:58  -6.45  -4.24     4.901469    0      1      
iter:  83  14:09:13  -6.38  -4.14     4.901669    0      2      
iter:  84  14:09:27  -6.55  -4.27     4.901715    0      1      
iter:  85  14:09:42  -6.43  -4.35     4.901790    0      2      
iter:  86  14:09:57  -6.66  -5.10     4.901709    0      1      
iter:  87  14:10:12  -6.60  -5.09     4.901690    0      1      
iter:  88  14:10:26  -6.78  -4.79     4.901720    0      1      
iter:  89  14:12:23  -6.13  -4.98     4.901692    0      1      
iter:  90  14:12:37  -6.48  -4.74     4.901717    0      1      
iter:  91  14:12:52  -6.23  -4.77     4.901702    0      1      
iter:  92  14:13:06  -6.49  -4.68     4.901651    0      1      
iter:  93  14:15:04  -5.88  -4.52     4.901695    0      1      
iter:  94  14:15:18  -6.23  -4.50     4.901672    0      1      
iter:  95  14:15:34  -6.08  -4.42     4.901657    0      1      
iter:  96  14:15:48  -6.33  -4.48     4.901656    0      1      
iter:  97  14:16:04  -6.09  -4.60     4.901689    0      1      
iter:  98  14:16:18  -6.38  -4.67     4.901660    0      2      
iter:  99  14:16:33  -6.26  -5.08     4.901641    0      1      
iter: 100  14:16:47  -6.49  -5.03     4.901646    0      1      
iter: 101  14:17:02  -6.29  -5.25     4.901643    0      1      
iter: 102  14:17:16  -6.55  -5.61     4.901640    0      1      
iter: 103  14:17:32  -6.36  -6.06     4.901639    0      1      
iter: 104  14:17:46  -6.60  -5.16     4.901637    0      1      
iter: 105  14:18:01  -6.46  -5.28     4.901637    0      1      
iter: 106  14:18:15  -6.68  -4.99     4.901635    0      1      
iter: 107  14:18:30  -6.57  -4.83     4.901635    0      1      
iter: 108  14:18:44  -6.78  -4.77     4.901635    0      1      
iter: 109  14:18:59  -6.65  -4.63     4.901632    0      1      
iter: 110  14:19:13  -6.87  -4.65     4.901634    0      1      
iter: 111  14:19:27  -6.68  -4.78     4.901639    0      1      
iter: 112  14:19:41  -6.94  -5.20     4.901636    0      1      
iter: 113  14:19:57  -6.77  -5.89     4.901631    0      1      
iter: 114  14:20:11  -7.01  -5.28     4.901632    0      1      
iter: 115  14:20:26  -6.76  -6.28     4.901630    0      1      
iter: 116  14:20:40  -7.02  -5.59     4.901630    0      1      
iter: 117  14:20:55  -6.75  -5.43     4.901629    0      1      
iter: 118  14:21:09  -7.01  -5.06     4.901629    0      1      
iter: 119  14:21:24  -6.75  -5.07     4.901628    0      1      
iter: 120  14:21:41  -6.95  -4.94     4.901627    0      1      
iter: 121  14:21:59  -7.06  -4.71     4.901629    0      1      
iter: 122  14:22:17  -7.17  -4.89     4.901629    0      1      
iter: 123  14:22:34  -7.27  -5.84     4.901628    0      1      
iter: 124  14:22:48  -7.44  -5.97     4.901627    0      1      
------------------------------------
Converged After 124 Iterations.

Energy Contributions Relative to Reference Atoms:(reference = -16973.565901)
-------------------------
Kinetic:         -8.458363
Potential:       +8.026390
External:        +0.000000
XC:              +5.211960
Entropy (-ST):   -0.000000
Local:           +0.121641
-------------------------
Free Energy:     +4.901627
Zero Kelvin:     +4.901627

Fermi Level: -4.80787
 Band  Eigenvalues  Occupancy
    0    -34.91086    2.00000
    1    -34.90462    2.00000
    2    -34.83291    2.00000
    3    -19.46658    2.00000
    4     -7.54907    2.00000
    5     -7.17680    2.00000
    6     -7.17243    2.00000
    7     -2.44332    0.00000
    8     -0.05366    0.00000
    9     -0.05317    0.00000
   10      0.55586    0.00000


SIC orbital centers and energies:
                                 0.50x    0.50x
          x       y       z       XC    Coulomb
--------------------------------------------------
  0  (  5.004,  4.994,  4.949):    9.478   -8.440
  1  (  5.000,  5.006,  4.988):    9.453   -8.417
  2  (  4.995,  5.000,  4.988):    9.453   -8.416
  3  (  4.572,  5.113,  7.923):    4.375   -3.991
  4  (  5.013,  5.019,  7.234):    4.106   -3.770
  5  (  5.310,  5.293,  7.951):    4.386   -4.002
  6  (  5.095,  4.564,  7.916):    4.374   -3.991
--------------------------------------------------

Total SIC energy     :      9.19650
Stabilizing potential:      0.00000

Dipole Moment: [ -2.88270015e-04  -5.91268449e-04  -2.26356345e+00]
Memory usage: 980.27 MiB
============================================================
Timing:                               incl.     excl.
============================================================
IO:                                   0.066     0.000   0.0% |
 Write:                               0.066     0.000   0.0% |
  Atomic matrices:                    0.001     0.001   0.0% |
  Band energies:                      0.000     0.000   0.0% |
  Close:                              0.000     0.000   0.0% |
  Meta data:                          0.002     0.002   0.0% |
  Projections:                        0.000     0.000   0.0% |
  Pseudo-density:                     0.005     0.005   0.0% |
  Pseudo-potential:                   0.005     0.005   0.0% |
  Pseudo-wavefunctions:               0.052     0.052   0.0% |
Initialization:                      15.465     1.042   0.0% |
 Hamiltonian:                        14.207     0.002   0.0% |
  Atomic:                             0.088     0.088   0.0% |
   XC Correction:                     0.000     0.000   0.0% |
  Communicate energies:               0.000     0.000   0.0% |
  Hartree integrate/restrict:         0.035     0.035   0.0% |
  Initialize Hamiltonian:             0.004     0.004   0.0% |
  Poisson:                           13.060    13.060   0.4% |
  XC 3D grid:                         1.014     1.014   0.0% |
  vbar:                               0.004     0.004   0.0% |
 LCAO initialization:                 0.216     0.189   0.0% |
  LCAO eigensolver:                   0.009     0.000   0.0% |
   Calculate projections:             0.000     0.000   0.0% |
   DenseAtomicCorrection:             0.000     0.000   0.0% |
   Distribute overlap matrix:         0.001     0.001   0.0% |
   Orbital Layouts:                   0.000     0.000   0.0% |
   Potential matrix:                  0.008     0.008   0.0% |
  LCAO to grid:                       0.017     0.017   0.0% |
  Set positions (LCAO WFS):           0.002     0.001   0.0% |
   Basic WFS set positions:           0.000     0.000   0.0% |
   Basis functions set positions:     0.000     0.000   0.0% |
   TCI: Calculate S, T, P:            0.001     0.001   0.0% |
SCF-cycle:                         3065.214     0.115   0.0% |
 Density:                             5.983     0.005   0.0% |
  Atomic density matrices:            0.246     0.246   0.0% |
  Mix:                                4.634     4.634   0.1% |
  Multipole moments:                  0.012     0.012   0.0% |
  Pseudo density:                     1.087     1.079   0.0% |
   Symmetrize density:                0.008     0.008   0.0% |
 Hamiltonian:                      2913.780     0.258   0.0% |
  Atomic:                            10.484    10.483   0.3% |
   XC Correction:                     0.001     0.001   0.0% |
  Communicate energies:               0.005     0.005   0.0% |
  Hartree integrate/restrict:         3.077     3.077   0.1% |
  Poisson:                          133.323   133.323   4.3% |-|
  XC 3D grid:                      2766.055   157.157   5.0% |-|
   ODD-potentials:                 2608.898     7.067   0.2% |
    Hartree:                       1363.109  1363.109  43.7% |----------------|
    XC:                            1238.722  1238.722  39.8% |---------------|
  vbar:                               0.579     0.579   0.0% |
 Orthonormalize:                      6.452     0.010   0.0% |
  Band Layouts:                       0.008     0.001   0.0% |
   Inverse Cholesky:                  0.006     0.006   0.0% |
  calc_s_matrix:                      2.213     2.213   0.1% |
  projections:                        0.354     0.354   0.0% |
  rotate_psi:                         3.868     3.868   0.1% |
 RMM-DIIS:                          116.762     2.212   0.1% |
  Apply hamiltonian:                  8.047     8.047   0.3% |
  Calculate residuals:               25.566    25.566   0.8% |
  DIIS step:                         50.639     3.265   0.1% |
   Calculate errors:                  0.417     0.417   0.0% |
   Calculate residuals:              24.672    16.628   0.5% |
    Apply hamiltonian:                8.044     8.044   0.3% |
   Construct matrix:                  3.537     3.537   0.1% |
   Linear solve:                      0.116     0.116   0.0% |
   Update trial vectors:              5.244     5.244   0.2% |
   precondition:                     13.387    13.387   0.4% |
  Find lambda:                        0.990     0.990   0.0% |
  Update psi:                         2.101     2.101   0.1% |
  precondition:                      26.712    26.712   0.9% |
  projections:                        0.494     0.494   0.0% |
 Subspace diag:                      22.122     0.013   0.0% |
  Band Layouts:                       0.015     0.002   0.0% |
   Diagonalize:                       0.011     0.011   0.0% |
   Distribute results:                0.002     0.002   0.0% |
  calc_h_matrix:                     13.826     6.202   0.2% |
   Apply hamiltonian:                 7.624     7.624   0.2% |
  rotate_psi:                         8.267     8.267   0.3% |
Other:                               35.096    35.096   1.1% |
============================================================
Total:                                       3115.841 100.0%
============================================================
date: Sat Dec  5 14:23:23 2015
