
  ___ ___ ___ _ _ _  
 |   |   |_  | | | | 
 | | | | | . | | | | 
 |__ |  _|___|_____|  0.11.0.13004
 |___|_|             

User:  vladislav@vladislav-ThinkPad-T530
Date:  Sat Dec  5 15:14:31 2015
Arch:  x86_64
Pid:   27974
gpaw:  /usr/lib/python2.7/dist-packages/gpaw
_gpaw: /usr/bin/gpaw-python
ase:   /usr/lib/python2.7/dist-packages/ase (version 3.9.1.4567)
numpy: /usr/lib/python2.7/dist-packages/numpy (version 1.8.2)
scipy: /usr/lib/python2.7/dist-packages/scipy (version 0.14.1)
units: Angstrom and eV
cores: 4

Memory estimate
---------------
Process memory now: 51.64 MiB
Calculator  97.40 MiB
    Density  32.14 MiB
        Arrays  22.85 MiB
        Localized functions  4.17 MiB
        Mixer  5.12 MiB
    Hamiltonian  32.33 MiB
        Arrays  14.95 MiB
        XC  0.00 MiB
        Poisson  17.07 MiB
        vbar  0.31 MiB
    Wavefunctions  32.93 MiB
        Arrays psit_nG  9.38 MiB
        Eigensolver  13.66 MiB
        Projections  0.00 MiB
        Projectors  0.50 MiB
        Overlap op  9.39 MiB

Positions:
  0 Na    5.0000    5.0000    5.0000
  1 Cl    5.0000    5.0000    7.8200

       .------------------------.  
      /|                        |  
     / |                        |  
    /  |                        |  
   /   |                        |  
  /    |                        |  
 *     |                        |  
 |     |                        |  
 |     |                        |  
 |     |         Cl             |  
 |     |                        |  
 |     |                        |  
 |     |                        |  
 |     |         Na             |  
 |     |                        |  
 |     |                        |  
 |     .------------------------.  
 |    /                        /   
 |   /                        /    
 |  /                        /     
 | /                        /      
 |/                        /       
 *------------------------*        

Unit Cell:
           Periodic     X           Y           Z      Points  Spacing
  --------------------------------------------------------------------
  1. axis:    no    10.000000    0.000000    0.000000    72     0.1389
  2. axis:    no     0.000000   10.000000    0.000000    72     0.1389
  3. axis:    no     0.000000    0.000000   12.820000    92     0.1393

Na-setup:
  name   : Sodium
  id     : d7ecbc49209718622bcbe287195dca2a
  Z      : 11
  valence: 7
  core   : 4
  charge : 0.0
  file   : /usr/share/gpaw-setups/Na.PBE.gz
  cutoffs: 1.18(comp), 2.17(filt), 2.59(core), lmax=2
  valence states:
            energy   radius
    3s(1.00)  -2.744   1.201
    2p(6.00) -28.672   1.217
    3p(0.00)  -0.743   1.217
    *s      24.468   1.201
    *d       0.000   1.238

LCAO basis set for Na:
  Name: szp(dzp)
  Basis set was loaded from file /usr/share/gpaw-setups/Na.dzp.basis.gz
  Number of radial functions: 4
  Number of spherical harmonics: 10
    l=0, rc=11.4062 Bohr: 3s-sz confined orbital
    l=1, rc=3.6719 Bohr: 2p-sz confined orbital
    l=1, rc=15.9375 Bohr: 3p-sz confined orbital
    l=1, rc=11.4062 Bohr: p-type Gaussian polarization

Cl-setup:
  name   : Chlorine
  id     : 726897f06f34e53cf8e33b5885a02604
  Z      : 17
  valence: 7
  core   : 10
  charge : 0.0
  file   : /usr/share/gpaw-setups/Cl.PBE.gz
  cutoffs: 0.79(comp), 1.40(filt), 1.49(core), lmax=2
  valence states:
            energy   radius
    3s(2.00) -20.689   0.794
    3p(5.00)  -8.594   0.794
    *s       6.523   0.794
    *p      18.617   0.794
    *d       0.000   0.794

LCAO basis set for Cl:
  Name: szp(dzp)
  Basis set was loaded from file /usr/share/gpaw-setups/Cl.dzp.basis.gz
  Number of radial functions: 3
  Number of spherical harmonics: 9
    l=0, rc=5.1719 Bohr: 3s-sz confined orbital
    l=1, rc=6.2656 Bohr: 3p-sz confined orbital
    l=2, rc=6.2656 Bohr: d-type Gaussian polarization

Using the PBE Exchange-Correlation Functional.
Spin-Paired Calculation
Total Charge: 0.000000
Fermi Temperature: 0.000000
Wave functions: Uniform real-space grid
Kinetic energy operator: 6*3+1=19 point O(h^6) finite-difference Laplacian
Eigensolver: Davidson(niter=1, smin=None, normalize=True)
XC and Coulomb potentials evaluated on a 144*144*184 grid
Interpolation: tri-quintic (5. degree polynomial)
Poisson solver: Jacobi solver with 4 multi-grid levels
    Coarsest grid: 18 x 18 x 23 points
    Stencil: 6*3+1=19 point O(h^6) finite-difference Laplacian
    Tolerance: 2.000000e-10
    Max iterations: 1000
Reference Energy: -16973.565901

Total number of cores used: 4
Domain Decomposition: 1 x 2 x 2
MatrixOperator buffer_size: default value or 
                            see value of nblock in input file
Diagonalizer layout: Serial LAPACK
Orthonormalizer layout: Serial LAPACK

Symmetries present (total): 1

  ( 1  0  0)
  ( 0  1  0)
  ( 0  0  1)

1 k-point (Gamma)
1 k-point in the Irreducible Part of the Brillouin Zone

          k-points in crystal coordinates                weights
   0:     0.00000000    0.00000000    0.00000000          1/1

Mixer Type: Mixer
Linear Mixing Parameter: 0.25
Mixing with 3 Old Densities
No Damping of Long Wave Oscillations

Convergence Criteria:
    Total Energy Change: 0.0005 eV / electron
    Integral of Absolute Density Change: 0.0001 electrons
    Integral of Absolute Eigenstate Change: 4e-08 eV^2
Number of Atoms: 2
Number of Atomic Orbitals: 19
Number of Bands in Calculation: 11
Bands to Converge: Occupied States Only
Number of Valence Electrons: 14
                     log10-error:    Total        Iterations:
           Time      WFS    Density  Energy       Fermi  Poisson
iter:   1  15:14:49  +2.00           -5.298300    0      50     
iter:   2  15:14:50  +0.16           -5.380524    0             
iter:   3  15:14:51  -0.41           -5.399602    0             
iter:   4  15:15:07  -0.35  -0.97    -4.686831    0      30     
iter:   5  15:15:18  +0.47  -1.11    -4.417929    0      29     
iter:   6  15:15:28  +0.09  -1.28    -4.349833    0      30     
iter:   7  15:15:34  +0.32  -1.74    -4.361943    0      17     
iter:   8  15:15:42  -0.58  -2.11    -4.371246    0      19     
iter:   9  15:15:47  -0.04  -2.25    -4.377399    0      7      
iter:  10  15:15:52  -1.03  -2.24    -4.381342    0      7      
iter:  11  15:16:01  -0.40  -2.09    -4.384567    0      13     
iter:  12  15:16:09  -1.45  -2.23    -4.385593    0      16     
iter:  13  15:16:13  -0.93  -2.77    -4.386385    0      10     
iter:  14  15:16:18  -1.85  -3.14    -4.386548    0      5      
iter:  15  15:16:21  -1.36  -3.26    -4.387086    0      3      
iter:  16  15:16:25  -2.21  -3.29    -4.387422    0      4      
iter:  17  15:16:29  -1.74  -3.34    -4.387333    0      4      
iter:  18  15:16:32  -2.55  -3.50    -4.387140    0      4      
iter:  19  15:16:35  -2.10  -3.77    -4.387391    0      3      
iter:  20  15:16:37  -2.88  -4.26    -4.387485    0      1      
iter:  21  15:16:39  -2.45  -3.97    -4.387229    0      1      
iter:  22  15:16:41  -3.19  -3.80    -4.387610    0      1      
iter:  23  15:16:43  -2.78  -3.77    -4.387659    0      1      
iter:  24  15:16:46  -3.50  -3.77    -4.387010    0      2      
iter:  25  15:16:49  -3.05  -3.45    -4.387670    0      3      
iter:  26  15:16:52  -3.86  -3.80    -4.387546    0      1      
iter:  27  15:16:56  -3.45  -3.75    -4.387654    0      4      
iter:  28  15:16:59  -4.10  -3.89    -4.387334    0      2      
iter:  29  15:17:02  -3.89  -4.21    -4.387315    0      2      
iter:  30  15:17:05  -4.55  -4.47    -4.387471    0      1      
iter:  31  15:17:07  -4.21  -4.74    -4.387576    0      1      
iter:  32  15:17:09  -4.85  -5.20    -4.387464    0      1      
iter:  33  15:17:12  -4.54  -5.23    -4.387434    0      1      
iter:  34  15:17:15  -5.16  -5.15    -4.387418    0      1      
iter:  35  15:17:18  -4.86  -4.95    -4.387397    0      1      
iter:  36  15:17:21  -5.45  -4.88    -4.387385    0      1      
iter:  37  15:17:23  -5.16  -4.84    -4.387410    0      1      
iter:  38  15:17:26  -5.74  -4.88    -4.387394    0      1      
iter:  39  15:17:28  -5.50  -4.82    -4.387334    0      1      
iter:  40  15:17:30  -5.93  -4.86    -4.387359    0      1      
iter:  41  15:17:33  -5.83  -4.73    -4.387421    0      1      
iter:  42  15:17:36  -6.23  -5.09    -4.387436    0      1      
iter:  43  15:17:39  -6.13  -5.32    -4.387328    0      1      
iter:  44  15:17:43  -6.59  -5.37    -4.387372    0      1      
iter:  45  15:17:45  -6.41  -5.09    -4.387319    0      1      
iter:  46  15:17:49  -6.91  -5.19    -4.387296    0      1      
iter:  47  15:17:51  -6.78  -5.39    -4.387316    0      1      
iter:  48  15:17:54  -7.09  -5.49    -4.387336    0      1      
iter:  49  15:17:56  -7.05  -5.81    -4.387338    0      1      
iter:  50  15:17:58  -7.37  -5.90    -4.387338    0      1      
iter:  51  15:18:00  -7.30  -6.02    -4.387340    0      1      
iter:  52  15:18:03  -7.66  -6.05    -4.387352    0      1      
------------------------------------
Converged After 52 Iterations.

Energy Contributions Relative to Reference Atoms:(reference = -16973.565901)
-------------------------
Kinetic:         +0.143201
Potential:       -0.205091
External:        +0.000000
XC:              -4.409894
Entropy (-ST):   -0.000000
Local:           +0.084432
-------------------------
Free Energy:     -4.387352
Zero Kelvin:     -4.387352

Fermi Level: -3.70226
 Band  Eigenvalues  Occupancy
    0    -30.12373    2.00000
    1    -30.12373    2.00000
    2    -30.04041    2.00000
    3    -16.66077    2.00000
    4     -5.39388    2.00000
    5     -4.90551    2.00000
    6     -4.90551    2.00000
    7     -2.49901    0.00000
    8     -0.12592    0.00000
    9     -0.12592    0.00000
   10      0.48185    0.00000


Dipole Moment: [ -1.44291173e-13  -6.62705387e-14  -2.20652864e+00]
Memory usage: 743.13 MiB
============================================================
Timing:                               incl.     excl.
============================================================
IO:                                   0.068     0.000   0.0% |
 Write:                               0.068     0.000   0.0% |
  Atomic matrices:                    0.001     0.001   0.0% |
  Band energies:                      0.000     0.000   0.0% |
  Close:                              0.001     0.001   0.0% |
  Meta data:                          0.003     0.003   0.0% |
  Projections:                        0.000     0.000   0.0% |
  Pseudo-density:                     0.005     0.005   0.0% |
  Pseudo-potential:                   0.005     0.005   0.0% |
  Pseudo-wavefunctions:               0.053     0.053   0.0% |
Initialization:                      16.536     1.229   0.5% |
 Hamiltonian:                        14.853     0.002   0.0% |
  Atomic:                             0.109     0.109   0.0% |
   XC Correction:                     0.000     0.000   0.0% |
  Communicate energies:               0.000     0.000   0.0% |
  Hartree integrate/restrict:         0.026     0.026   0.0% |
  Initialize Hamiltonian:             0.003     0.003   0.0% |
  Poisson:                           13.594    13.594   5.4% |-|
  XC 3D grid:                         1.113     1.113   0.4% |
  vbar:                               0.007     0.007   0.0% |
 LCAO initialization:                 0.454     0.373   0.1% |
  LCAO eigensolver:                   0.020     0.000   0.0% |
   Calculate projections:             0.000     0.000   0.0% |
   DenseAtomicCorrection:             0.000     0.000   0.0% |
   Distribute overlap matrix:         0.003     0.003   0.0% |
   Orbital Layouts:                   0.000     0.000   0.0% |
   Potential matrix:                  0.017     0.017   0.0% |
  LCAO to grid:                       0.032     0.032   0.0% |
  Set positions (LCAO WFS):           0.030     0.028   0.0% |
   Basic WFS set positions:           0.000     0.000   0.0% |
   Basis functions set positions:     0.000     0.000   0.0% |
   TCI: Calculate S, T, P:            0.001     0.001   0.0% |
SCF-cycle:                          194.752     0.883   0.4% |
 Davidson:                           29.838    25.274  10.0% |---|
  Apply hamiltonian:                  4.564     4.564   1.8% ||
 Density:                             3.170     0.002   0.0% |
  Atomic density matrices:            0.185     0.185   0.1% |
  Mix:                                2.455     2.455   1.0% |
  Multipole moments:                  0.096     0.096   0.0% |
  Pseudo density:                     0.431     0.428   0.2% |
   Symmetrize density:                0.003     0.003   0.0% |
 Hamiltonian:                       148.016     0.127   0.1% |
  Atomic:                             5.026     5.026   2.0% ||
   XC Correction:                     0.000     0.000   0.0% |
  Communicate energies:               0.020     0.020   0.0% |
  Hartree integrate/restrict:         1.498     1.498   0.6% |
  Poisson:                           79.056    79.056  31.4% |------------|
  XC 3D grid:                        61.982    61.982  24.6% |---------|
  vbar:                               0.307     0.307   0.1% |
 Orthonormalize:                      0.057     0.000   0.0% |
  Band Layouts:                       0.000     0.000   0.0% |
   Inverse Cholesky:                  0.000     0.000   0.0% |
  calc_s_matrix:                      0.019     0.019   0.0% |
  projections:                        0.003     0.003   0.0% |
  rotate_psi:                         0.034     0.034   0.0% |
 Subspace diag:                      12.788     0.007   0.0% |
  Band Layouts:                       0.020     0.001   0.0% |
   Diagonalize:                       0.017     0.017   0.0% |
   Distribute results:                0.001     0.001   0.0% |
  calc_h_matrix:                      7.173     2.849   1.1% |
   Apply hamiltonian:                 4.324     4.324   1.7% ||
  rotate_psi:                         5.589     5.589   2.2% ||
Other:                               40.718    40.718  16.2% |-----|
============================================================
Total:                                        252.074 100.0%
============================================================
date: Sat Dec  5 15:18:43 2015
