
  ___ ___ ___ _ _ _  
 |   |   |_  | | | | 
 | | | | | . | | | | 
 |__ |  _|___|_____|  1.2.0
 |___|_|             

User:   user@ubuntu
Date:   Mon Mar  5 07:57:23 2018
Arch:   x86_64
Pid:    11520
Python: 3.6.3
gpaw:   /usr/lib/python3/dist-packages/gpaw
_gpaw:  /usr/lib/python3/dist-packages/_gpaw.cpython-36m-x86_64-linux-gnu.so
ase:    /home/user/.local/lib/python3.6/site-packages/ase (version 3.15.0)
numpy:  /home/user/.local/lib/python3.6/site-packages/numpy (version 1.14.0)
scipy:  /home/user/.local/lib/python3.6/site-packages/scipy (version 1.0.0)
units:  Angstrom and eV
cores:  1

Input parameters:
  basis: dzp
  mode: lcao

System changes: positions, numbers, cell, pbc, initial_charges, initial_magmoms 

Initialize ...

C-setup:
  name: Carbon
  id: d60576a1f549371a163e72552ca58787
  Z: 6
  valence: 4
  core: 2
  charge: 0.0
  file: /usr/share/gpaw-setups/C.LDA.gz
  cutoffs: 0.64(comp), 1.14(filt), 1.14(core), lmax=2
  valence states:
                energy  radius
    2s(2.00)   -13.639   0.635
    2p(2.00)    -5.414   0.635
    *s          13.573   0.635
    *p          21.797   0.635
    *d           0.000   0.635

  LCAO basis set for C:
    Name: dzp
    File: /usr/share/gpaw-setups/C.dzp.basis.gz
    Number of radial functions: 5
    Number of spherical harmonics: 13
      l=0, rc=5.5469 Bohr: 2s-sz confined orbital
      l=1, rc=6.6719 Bohr: 2p-sz confined orbital
      l=0, rc=3.0312 Bohr: 2s-dz split-valence wave
      l=1, rc=3.7500 Bohr: 2p-dz split-valence wave
      l=2, rc=6.6719 Bohr: d-type Gaussian polarization

Reference energy: -2037.605076

Spin-paired calculation

Occupation numbers:
  Fermi-Dirac: width=0.0000 eV

Convergence criteria:
  Maximum total energy change: 0.0005 eV / electron
  Maximum integral of absolute density change: 0.0001 electrons
  Maximum integral of absolute eigenstate change: 4e-08 eV^2
  Maximum number of iterations: 333

Symmetries present (total): 1

  ( 1  0  0)
  ( 0  1  0)
  ( 0  0  1)

1 k-point (Gamma)
1 k-point in the irreducible part of the Brillouin zone
       k-points in crystal coordinates                weights
   0:     0.00000000    0.00000000    0.00000000          1/1

Wave functions: LCAO
  Diagonalizer: Serial LAPACK
  Atomic Correction: dense with blas
  Datatype: float
  Eigensolver: None 

LCAO using direct dense diagonalizer 

Densities:
  Coarse grid: 48*48*48 grid
  Fine grid: 96*96*96 grid
  Total Charge: 0.000000 

Density mixing:
  Method: separate
  Backend: pulay
  Linear mixing parameter: 0.25
  Mixing with 3 old densities
  No damping of long wave oscillations 

Hamiltonian:
  XC and Coulomb potentials evaluated on a 96*96*96 grid
  Using the LDA Exchange-Correlation functional
  Interpolation: tri-quintic (5. degree polynomial)
  Poisson solver: Jacobi solver with 6 multi-grid levels
    Coarsest grid: 3 x 3 x 3 points
    Stencil: 6*3+1=19 point O(h^6) finite-difference Laplacian
    Tolerance: 2.000000e-10
    Max iterations: 1000 

Memory estimate:
  Process memory now: 666.66 MiB
  Calculator: 59.73 MiB
    Density: 27.01 MiB
      Arrays: 21.21 MiB
      Localized functions: 1.05 MiB
      Mixer: 4.75 MiB
    Hamiltonian: 29.84 MiB
      Arrays: 13.87 MiB
      XC: 0.00 MiB
      Poisson: 15.89 MiB
      vbar: 0.08 MiB
    Wavefunctions: 2.87 MiB
      C [qnM]: 0.00 MiB
      S, T [2 x qmm]: 0.01 MiB
      P [aqMi]: 0.00 MiB
      TCI: 0.00 MiB
      BasisFunctions: 2.86 MiB
      Eigensolver: 0.00 MiB

Total number of cores used: 1

Number of atoms: 2
Number of atomic orbitals: 26
Number of bands in calculation: 8
Bands to converge: occupied states only
Number of valence electrons: 8

... initialized

Initializing position-dependent things.

Density initialized from atomic densities
       .------------------------.  
      /|                        |  
     / |                        |  
    /  |                        |  
   /   |                        |  
  /    |                        |  
 *     |                        |  
 |     |                        |  
 |     |                        |  
 |     |     C      C           |  
 |     |                        |  
 |     |                        |  
 |     .------------------------.  
 |    /                        /   
 |   /                        /    
 |  /                        /     
 | /                        /      
 |/                        /       
 *------------------------*        

Positions:
   0 C      3.770000    5.000000    5.000000
   1 C      6.230000    5.000000    5.000000

Unit cell:
           periodic     x           y           z      points  spacing
  1. axis:    no    10.000000    0.000000    0.000000    48     0.2083
  2. axis:    no     0.000000   10.000000    0.000000    48     0.2083
  3. axis:    no     0.000000    0.000000   10.000000    48     0.2083

                     log10-error:    total        iterations:
           time      wfs    density  energy       fermi  poisson
iter:   1  07:57:26          +inf    -2.906179    0      15     
iter:   2  07:57:27         -0.69    -2.910850    0      8      
iter:   3  07:57:28         -0.66    -2.776909    0      7      
iter:   4  07:57:30         -0.72    -3.249647    0      9      
iter:   5  07:57:31         -0.54    -3.210301    0      6      
iter:   6  07:57:32         -0.55    -3.690489    0      10     
iter:   7  07:57:34         -0.44    -2.779407    0      10     
iter:   8  07:57:35         -0.71    -2.784168    0      9      
iter:   9  07:57:37         -0.71    -2.914648    0      9      
iter:  10  07:57:38         -0.65    -2.768858    0      8      
iter:  11  07:57:39         -0.72    -2.718167    0      8      
iter:  12  07:57:41         -0.74    -2.639217    0      8      
iter:  13  07:57:41         -0.80    -2.638033    0      3      
iter:  14  07:57:43         -0.80    -2.658717    0      7      
iter:  15  07:57:44         -0.79    -2.633074    0      6      
iter:  16  07:57:44         -0.81    -2.629400    0      4      
iter:  17  07:57:46         -0.81    -3.339070    0      9      
iter:  18  07:57:47         -0.51    -2.813613    0      9      
iter:  19  07:57:49         -0.69    -2.697421    0      8      
iter:  20  07:57:50         -0.76    -3.340827    0      10     
iter:  21  07:57:52         -0.51    -2.755687    0      9      
iter:  22  07:57:53         -0.72    -2.635398    0      8      
iter:  23  07:57:54         -0.81    -3.338750    0      9      
iter:  24  07:57:56         -0.51    -2.758745    0      9      
iter:  25  07:57:57         -0.72    -2.691427    0      8      
iter:  26  07:57:58         -0.76    -2.777582    0      7      
iter:  27  07:58:00         -0.71    -2.639940    0      8      
iter:  28  07:58:01         -0.80    -2.657525    0      7      
iter:  29  07:58:02         -0.79    -2.636632    0      6      
iter:  30  07:58:03         -0.80    -2.631883    0      5      
iter:  31  07:58:05         -0.81    -3.378414    0      9      
iter:  32  07:58:06         -0.51    -2.918985    0      9      
iter:  33  07:58:07         -0.65    -2.768814    0      7      
iter:  34  07:58:09         -0.71    -3.326279    0      10     
iter:  35  07:58:10         -0.52    -2.749076    0      9      
iter:  36  07:58:11         -0.73    -2.694771    0      7      
iter:  37  07:58:13         -0.76    -3.337071    0      10     
iter:  38  07:58:14         -0.51    -2.773137    0      9      
iter:  39  07:58:16         -0.71    -2.705248    0      7      
iter:  40  07:58:17         -0.75    -3.337798    0      10     
iter:  41  07:58:19         -0.51    -2.765445    0      9      
iter:  42  07:58:20         -0.72    -2.730027    0      6      
iter:  43  07:58:21         -0.74    -3.336567    0      10     
iter:  44  07:58:23         -0.51    -2.763691    0      9      
iter:  45  07:58:24         -0.72    -2.708952    0      7      
iter:  46  07:58:26         -0.75    -3.336789    0      10     
iter:  47  07:58:27         -0.51    -2.763208    0      9      
iter:  48  07:58:28         -0.72    -2.699028    0      7      
iter:  49  07:58:30         -0.76    -3.336510    0      10     
iter:  50  07:58:31         -0.51    -2.779411    0      9      
iter:  51  07:58:32         -0.71    -2.741419    0      6      
iter:  52  07:58:34         -0.73    -3.336049    0      10     
iter:  53  07:58:35         -0.51    -2.757094    0      9      
iter:  54  07:58:37         -0.72    -2.685598    0      7      
iter:  55  07:58:38         -0.77    -3.336104    0      10     
iter:  56  07:58:40         -0.51    -2.771520    0      9      
iter:  57  07:58:41         -0.71    -2.732338    0      6      
iter:  58  07:58:42         -0.74    -3.335935    0      10     
iter:  59  07:58:44         -0.51    -2.763417    0      9      
iter:  60  07:58:45         -0.72    -2.717450    0      7      
iter:  61  07:58:46         -0.74    -3.335717    0      10     
iter:  62  07:58:48         -0.51    -2.762483    0      9      
iter:  63  07:58:49         -0.72    -2.684906    0      7      
iter:  64  07:58:51         -0.77    -3.335960    0      10     
iter:  65  07:58:52         -0.51    -2.781215    0      9      
iter:  66  07:58:53         -0.71    -2.748313    0      6      
iter:  67  07:58:55         -0.73    -3.335437    0      10     
iter:  68  07:58:56         -0.51    -2.756009    0      9      
iter:  69  07:58:58         -0.72    -2.692248    0      7      
iter:  70  07:58:59         -0.76    -3.335666    0      10     
iter:  71  07:59:01         -0.51    -2.768072    0      9      
iter:  72  07:59:02         -0.71    -2.713121    0      7      
iter:  73  07:59:04         -0.75    -3.335757    0      10     
iter:  74  07:59:05         -0.51    -2.774874    0      9      
iter:  75  07:59:06         -0.71    -2.734514    0      6      
iter:  76  07:59:08         -0.73    -3.335329    0      10     
iter:  77  07:59:09         -0.51    -2.758699    0      9      
iter:  78  07:59:10         -0.72    -2.681480    0      7      
iter:  79  07:59:12         -0.77    -3.335664    0      10     
iter:  80  07:59:13         -0.51    -2.773734    0      9      
iter:  81  07:59:14         -0.71    -2.741557    0      6      
iter:  82  07:59:16         -0.73    -3.335381    0      10     
iter:  83  07:59:17         -0.51    -2.759581    0      9      
iter:  84  07:59:19         -0.72    -2.708096    0      7      
iter:  85  07:59:20         -0.75    -3.335442    0      10     
iter:  86  07:59:22         -0.51    -2.764060    0      9      
iter:  87  07:59:23         -0.72    -2.688983    0      7      
iter:  88  07:59:24         -0.76    -3.335726    0      10     
iter:  89  07:59:26         -0.51    -2.791703    0      9      
iter:  90  07:59:27         -0.70    -2.749787    0      6      
iter:  91  07:59:29         -0.72    -3.335150    0      10     
iter:  92  07:59:30         -0.51    -2.754436    0      9      
iter:  93  07:59:31         -0.72    -2.685432    0      7      
iter:  94  07:59:33         -0.77    -3.335534    0      10     
iter:  95  07:59:34         -0.51    -2.770559    0      9      
iter:  96  07:59:35         -0.71    -2.724933    0      7      
iter:  97  07:59:37         -0.74    -3.335492    0      10     
iter:  98  07:59:39         -0.51    -2.767817    0      9      
iter:  99  07:59:40         -0.71    -2.725886    0      6      
iter: 100  07:59:41         -0.74    -3.335286    0      10     
iter: 101  07:59:43         -0.51    -2.760635    0      9      
iter: 102  07:59:44         -0.72    -2.680164    0      7      
iter: 103  07:59:45         -0.77    -3.335584    0      10     
iter: 104  07:59:47         -0.51    -2.777748    0      9      
iter: 105  07:59:48         -0.71    -2.747976    0      6      
iter: 106  07:59:50         -0.73    -3.335241    0      10     
iter: 107  07:59:51         -0.51    -2.756752    0      9      
iter: 108  07:59:52         -0.72    -2.698635    0      7      
iter: 109  07:59:54         -0.76    -3.335413    0      10     
iter: 110  07:59:55         -0.51    -2.766121    0      9      
iter: 111  07:59:56         -0.72    -2.699428    0      7      
iter: 112  07:59:58         -0.76    -3.335694    0      10     
iter: 113  08:00:00         -0.51    -2.790212    0      9      
iter: 114  08:00:01         -0.70    -2.744803    0      7      
iter: 115  08:00:02         -0.73    -3.335098    0      10     
iter: 116  08:00:04         -0.51    -2.755453    0      9      
iter: 117  08:00:05         -0.72    -2.682396    0      7      
iter: 118  08:00:07         -0.77    -3.335547    0      10     
iter: 119  08:00:08         -0.51    -2.772147    0      9      
iter: 120  08:00:09         -0.71    -2.733945    0      6      
iter: 121  08:00:11         -0.73    -3.335359    0      10     
iter: 122  08:00:12         -0.51    -2.763131    0      9      
iter: 123  08:00:13         -0.72    -2.717565    0      7      
iter: 124  08:00:15         -0.74    -3.335332    0      10     
iter: 125  08:00:17         -0.51    -2.762230    0      9      
iter: 126  08:00:18         -0.72    -2.681919    0      7      
iter: 127  08:00:19         -0.77    -3.335597    0      10     
iter: 128  08:00:21         -0.51    -2.784531    0      9      
iter: 129  08:00:22         -0.71    -2.751074    0      6      
iter: 130  08:00:23         -0.72    -3.335168    0      10     
iter: 131  08:00:25         -0.51    -2.754973    0      9      
iter: 132  08:00:26         -0.72    -2.690904    0      7      
iter: 133  08:00:28         -0.76    -3.335439    0      10     
iter: 134  08:00:29         -0.51    -2.768348    0      9      
iter: 135  08:00:30         -0.71    -2.712241    0      7      
iter: 136  08:00:32         -0.75    -3.335602    0      10     
iter: 137  08:00:33         -0.51    -2.777204    0      9      
iter: 138  08:00:35         -0.71    -2.735983    0      6      
iter: 139  08:00:36         -0.73    -3.335162    0      10     
iter: 140  08:00:38         -0.51    -2.758195    0      9      
iter: 141  08:00:39         -0.72    -2.680685    0      7      
iter: 142  08:00:40         -0.77    -3.335553    0      10     
iter: 143  08:00:42         -0.51    -2.773756    0      9      
iter: 144  08:00:43         -0.71    -2.741539    0      6      
iter: 145  08:00:45         -0.73    -3.335286    0      10     
iter: 146  08:00:46         -0.51    -2.759663    0      9      
iter: 147  08:00:47         -0.72    -2.708744    0      7      
iter: 148  08:00:49         -0.75    -3.335369    0      10     
iter: 149  08:00:50         -0.51    -2.763877    0      9      
iter: 150  08:00:51         -0.72    -2.687433    0      7      
iter: 151  08:00:53         -0.76    -3.335651    0      10     
iter: 152  08:00:54         -0.51    -2.793432    0      9      
iter: 153  08:00:56         -0.70    -2.750868    0      6      
iter: 154  08:00:57         -0.72    -3.335101    0      10     
iter: 155  08:00:59         -0.51    -2.754047    0      9      
iter: 156  08:01:00         -0.72    -2.685444    0      7      
iter: 157  08:01:01         -0.77    -3.335490    0      10     
iter: 158  08:01:03         -0.51    -2.770518    0      9      
iter: 159  08:01:04         -0.71    -2.723868    0      7      
iter: 160  08:01:06         -0.74    -3.335469    0      10     
iter: 161  08:01:07         -0.51    -2.768546    0      9      
iter: 162  08:01:08         -0.71    -2.726924    0      6      
iter: 163  08:01:10         -0.74    -3.335252    0      10     
iter: 164  08:01:11         -0.51    -2.760402    0      9      
iter: 165  08:01:12         -0.72    -2.679882    0      7      
iter: 166  08:01:14         -0.77    -3.335553    0      10     
iter: 167  08:01:15         -0.51    -2.777284    0      9      
iter: 168  08:01:16         -0.71    -2.747630    0      6      
iter: 169  08:01:18         -0.73    -3.335232    0      10     
iter: 170  08:01:19         -0.51    -2.756934    0      9      
iter: 171  08:01:21         -0.72    -2.699516    0      7      
iter: 172  08:01:22         -0.76    -3.335395    0      10     
iter: 173  08:01:24         -0.51    -2.765882    0      9      
iter: 174  08:01:25         -0.72    -2.697808    0      7      
iter: 175  08:01:26         -0.76    -3.335676    0      10     
iter: 176  08:01:28         -0.51    -2.792185    0      9      
iter: 177  08:01:29         -0.70    -2.745903    0      7      
iter: 178  08:01:31         -0.73    -3.335085    0      10     
iter: 179  08:01:32         -0.51    -2.755055    0      9      
iter: 180  08:01:33         -0.72    -2.682534    0      7      
iter: 181  08:01:35         -0.77    -3.335535    0      10     
iter: 182  08:01:36         -0.51    -2.772049    0      9      
iter: 183  08:01:37         -0.71    -2.732966    0      6      
iter: 184  08:01:39         -0.74    -3.335361    0      10     
iter: 185  08:01:41         -0.51    -2.763602    0      9      
iter: 186  08:01:42         -0.72    -2.718576    0      7      
iter: 187  08:01:43         -0.74    -3.335322    0      10     
iter: 188  08:01:45         -0.51    -2.762033    0      9      
iter: 189  08:01:46         -0.72    -2.681425    0      7      
iter: 190  08:01:48         -0.77    -3.335577    0      10     
iter: 191  08:01:49         -0.51    -2.783624    0      9      
iter: 192  08:01:50         -0.71    -2.750948    0      6      
iter: 193  08:01:52         -0.72    -3.335176    0      10     
iter: 194  08:01:53         -0.51    -2.755104    0      9      
iter: 195  08:01:55         -0.72    -2.691644    0      7      
iter: 196  08:01:56         -0.76    -3.335430    0      10     
iter: 197  08:01:58         -0.51    -2.768091    0      9      
iter: 198  08:01:59         -0.71    -2.710645    0      7      
iter: 199  08:02:00         -0.75    -3.335605    0      10     
iter: 200  08:02:02         -0.51    -2.778761    0      9      
iter: 201  08:02:03         -0.71    -2.737183    0      6      
iter: 202  08:02:05         -0.73    -3.335151    0      10     
iter: 203  08:02:06         -0.51    -2.757829    0      9      
iter: 204  08:02:07         -0.72    -2.680795    0      7      
iter: 205  08:02:09         -0.77    -3.335546    0      10     
iter: 206  08:02:10         -0.51    -2.773512    0      9      
iter: 207  08:02:11         -0.71    -2.740686    0      6      
iter: 208  08:02:13         -0.73    -3.335292    0      10     
iter: 209  08:02:14         -0.51    -2.760033    0      9      
iter: 210  08:02:15         -0.72    -2.709825    0      7      
iter: 211  08:02:17         -0.75    -3.335365    0      10     
iter: 212  08:02:19         -0.51    -2.763657    0      9      
iter: 213  08:02:20         -0.72    -2.686430    0      7      
iter: 214  08:02:21         -0.77    -3.335631    0      10     
iter: 215  08:02:23         -0.51    -2.792651    0      9      
iter: 216  08:02:24         -0.70    -2.751194    0      6      
iter: 217  08:02:25         -0.72    -3.335110    0      10     
iter: 218  08:02:27         -0.51    -2.754044    0      9      
iter: 219  08:02:28         -0.72    -2.685886    0      7      
iter: 220  08:02:30         -0.77    -3.335481    0      10     
iter: 221  08:02:31         -0.51    -2.770300    0      9      
iter: 222  08:02:32         -0.71    -2.722578    0      7      
iter: 223  08:02:34         -0.74    -3.335479    0      10     
iter: 224  08:02:35         -0.51    -2.769349    0      9      
iter: 225  08:02:36         -0.71    -2.727992    0      6      
iter: 226  08:02:38         -0.74    -3.335242    0      10     
iter: 227  08:02:39         -0.51    -2.760157    0      9      
iter: 228  08:02:41         -0.72    -2.679811    0      7      
iter: 229  08:02:42         -0.77    -3.335545    0      10     
iter: 230  08:02:44         -0.51    -2.776757    0      9      
iter: 231  08:02:45         -0.71    -2.747075    0      6      
iter: 232  08:02:46         -0.73    -3.335240    0      10     
iter: 233  08:02:48         -0.51    -2.757188    0      9      
iter: 234  08:02:49         -0.72    -2.700509    0      7      
iter: 235  08:02:51         -0.76    -3.335392    0      10     
iter: 236  08:02:52         -0.51    -2.765634    0      9      
iter: 237  08:02:53         -0.72    -2.696295    0      7      
iter: 238  08:02:55         -0.76    -3.335666    0      10     
iter: 239  08:02:56         -0.51    -2.793535    0      9      
iter: 240  08:02:57         -0.70    -2.746829    0      7      
iter: 241  08:02:59         -0.73    -3.335084    0      10     
iter: 242  08:03:00         -0.51    -2.754748    0      9      
iter: 243  08:03:02         -0.72    -2.682726    0      7      
iter: 244  08:03:03         -0.77    -3.335528    0      10     
iter: 245  08:03:05         -0.51    -2.771930    0      9      
iter: 246  08:03:06         -0.71    -2.731976    0      6      
iter: 247  08:03:07         -0.74    -3.335369    0      10     
iter: 248  08:03:09         -0.51    -2.764085    0      9      
iter: 249  08:03:10         -0.72    -2.719555    0      7      
iter: 250  08:03:12         -0.74    -3.335316    0      10     
iter: 251  08:03:13         -0.51    -2.761840    0      9      
iter: 252  08:03:14         -0.72    -2.681023    0      7      
iter: 253  08:03:16         -0.77    -3.335563    0      10     
iter: 254  08:03:17         -0.51    -2.782756    0      9      
iter: 255  08:03:18         -0.71    -2.750758    0      6      
iter: 256  08:03:20         -0.72    -3.335186    0      10     
iter: 257  08:03:22         -0.51    -2.755251    0      9      
iter: 258  08:03:23         -0.72    -2.692398    0      7      
iter: 259  08:03:24         -0.76    -3.335424    0      10     
iter: 260  08:03:26         -0.51    -2.767840    0      9      
iter: 261  08:03:27         -0.71    -2.709093    0      7      
iter: 262  08:03:29         -0.75    -3.335609    0      10     
iter: 263  08:03:30         -0.51    -2.780354    0      9      
iter: 264  08:03:31         -0.71    -2.738333    0      6      
iter: 265  08:03:33         -0.73    -3.335143    0      10     
iter: 266  08:03:34         -0.51    -2.757466    0      9      
iter: 267  08:03:35         -0.72    -2.680915    0      7      
iter: 268  08:03:37         -0.77    -3.335542    0      10     
iter: 269  08:03:39         -0.51    -2.773304    0      9      
iter: 270  08:03:40         -0.71    -2.739842    0      6      
iter: 271  08:03:41         -0.73    -3.335299    0      10     
iter: 272  08:03:43         -0.51    -2.760400    0      9      
iter: 273  08:03:44         -0.72    -2.710857    0      7      
iter: 274  08:03:46         -0.75    -3.335361    0      10     
iter: 275  08:03:47         -0.51    -2.763451    0      9      
iter: 276  08:03:48         -0.72    -2.685546    0      7      
iter: 277  08:03:50         -0.77    -3.335614    0      10     
iter: 278  08:03:51         -0.51    -2.791765    0      9      
iter: 279  08:03:52         -0.70    -2.751432    0      6      
iter: 280  08:03:54         -0.72    -3.335120    0      10     
iter: 281  08:03:56         -0.51    -2.754069    0      9      
iter: 282  08:03:57         -0.72    -2.686348    0      7      
iter: 283  08:03:58         -0.77    -3.335473    0      10     
iter: 284  08:04:00         -0.51    -2.770082    0      9      
iter: 285  08:04:01         -0.71    -2.721301    0      7      
iter: 286  08:04:03         -0.74    -3.335489    0      10     
iter: 287  08:04:04         -0.51    -2.770180    0      9      
iter: 288  08:04:05         -0.71    -2.729032    0      6      
iter: 289  08:04:07         -0.74    -3.335233    0      10     
iter: 290  08:04:08         -0.51    -2.759911    0      9      
iter: 291  08:04:09         -0.72    -2.679774    0      7      
iter: 292  08:04:11         -0.77    -3.335539    0      10     
iter: 293  08:04:13         -0.51    -2.776288    0      9      
iter: 294  08:04:14         -0.71    -2.746501    0      6      
iter: 295  08:04:15         -0.73    -3.335248    0      10     
iter: 296  08:04:17         -0.51    -2.757446    0      9      
iter: 297  08:04:18         -0.72    -2.701479    0      7      
iter: 298  08:04:19         -0.76    -3.335389    0      10     
iter: 299  08:04:21         -0.51    -2.765399    0      9      
iter: 300  08:04:22         -0.72    -2.694887    0      7      
iter: 301  08:04:24         -0.76    -3.335655    0      10     
iter: 302  08:04:25         -0.51    -2.794597    0      9      
iter: 303  08:04:26         -0.70    -2.747657    0      7      
iter: 304  08:04:28         -0.73    -3.335084    0      10     
iter: 305  08:04:29         -0.51    -2.754485    0      9      
iter: 306  08:04:31         -0.72    -2.682925    0      7      
iter: 307  08:04:32         -0.77    -3.335522    0      10     
iter: 308  08:04:34         -0.51    -2.771811    0      9      
iter: 309  08:04:35         -0.71    -2.731010    0      6      
iter: 310  08:04:36         -0.74    -3.335377    0      10     
iter: 311  08:04:38         -0.51    -2.764568    0      9      
iter: 312  08:04:39         -0.72    -2.720490    0      7      
iter: 313  08:04:40         -0.74    -3.335310    0      10     
iter: 314  08:04:42         -0.51    -2.761654    0      9      
iter: 315  08:04:43         -0.72    -2.680678    0      7      
iter: 316  08:04:45         -0.77    -3.335552    0      10     
iter: 317  08:04:46         -0.51    -2.781972    0      9      
iter: 318  08:04:47         -0.71    -2.750541    0      6      
iter: 319  08:04:49         -0.72    -3.335195    0      10     
iter: 320  08:04:50         -0.51    -2.755400    0      9      
iter: 321  08:04:52         -0.72    -2.693139    0      7      
iter: 322  08:04:53         -0.76    -3.335420    0      10     
iter: 323  08:04:55         -0.51    -2.767602    0      9      
iter: 324  08:04:56         -0.71    -2.707600    0      7      
iter: 325  08:04:57         -0.75    -3.335612    0      10     
iter: 326  08:04:59         -0.51    -2.781971    0      9      
iter: 327  08:05:00         -0.71    -2.739430    0      6      
iter: 328  08:05:02         -0.73    -3.335135    0      10     
iter: 329  08:05:03         -0.51    -2.757109    0      9      
iter: 330  08:05:04         -0.72    -2.681035    0      7      
iter: 331  08:05:06         -0.77    -3.335539    0      10     
iter: 332  08:05:07         -0.51    -2.773128    0      9      
iter: 333  08:05:08         -0.71    -2.739020    0      6      
