
  ___ ___ ___ _ _ _  
 |   |   |_  | | | | 
 | | | | | . | | | | 
 |__ |  _|___|_____|  1.2.0
 |___|_|             

User:   user@ubuntu
Date:   Mon Mar 12 06:52:59 2018
Arch:   x86_64
Pid:    21987
Python: 3.6.3
gpaw:   /usr/lib/python3/dist-packages/gpaw
_gpaw:  /usr/lib/python3/dist-packages/_gpaw.cpython-36m-x86_64-linux-gnu.so
ase:    /home/user/.local/lib/python3.6/site-packages/ase (version 3.15.0)
numpy:  /home/user/.local/lib/python3.6/site-packages/numpy (version 1.14.0)
scipy:  /home/user/.local/lib/python3.6/site-packages/scipy (version 1.0.0)
units:  Angstrom and eV
cores:  1

Input parameters:
  basis: dzp
  mode: lcao
  occupations: {fixmagmom: True,
                name: fermi-dirac,
                width: 0.1}
  spinpol: True

System changes: positions, numbers, cell, pbc, initial_charges, initial_magmoms 

Initialize ...

C-setup:
  name: Carbon
  id: d60576a1f549371a163e72552ca58787
  Z: 6
  valence: 4
  core: 2
  charge: 0.0
  file: /usr/share/gpaw-setups/C.LDA.gz
  cutoffs: 0.64(comp), 1.14(filt), 1.14(core), lmax=2
  valence states:
                energy  radius
    2s(2.00)   -13.639   0.635
    2p(2.00)    -5.414   0.635
    *s          13.573   0.635
    *p          21.797   0.635
    *d           0.000   0.635

  LCAO basis set for C:
    Name: dzp
    File: /usr/share/gpaw-setups/C.dzp.basis.gz
    Number of radial functions: 5
    Number of spherical harmonics: 13
      l=0, rc=5.5469 Bohr: 2s-sz confined orbital
      l=1, rc=6.6719 Bohr: 2p-sz confined orbital
      l=0, rc=3.0312 Bohr: 2s-dz split-valence wave
      l=1, rc=3.7500 Bohr: 2p-dz split-valence wave
      l=2, rc=6.6719 Bohr: d-type Gaussian polarization

Reference energy: -2037.605076

Spin-polarized calculation.
Magnetic moment:  0.000000

Occupation numbers:
  Fixed magnetic moment
  Fermi-Dirac: width=0.1000 eV

Convergence criteria:
  Maximum total energy change: 0.0005 eV / electron
  Maximum integral of absolute density change: 0.0001 electrons
  Maximum integral of absolute eigenstate change: 4e-08 eV^2
  Maximum number of iterations: 333

Symmetries present (total): 1

  ( 1  0  0)
  ( 0  1  0)
  ( 0  0  1)

1 k-point (Gamma)
1 k-point in the irreducible part of the Brillouin zone
       k-points in crystal coordinates                weights
   0:     0.00000000    0.00000000    0.00000000          1/1

Wave functions: LCAO
  Diagonalizer: Serial LAPACK
  Atomic Correction: dense with blas
  Datatype: float
  Eigensolver: None 

LCAO using direct dense diagonalizer 

Densities:
  Coarse grid: 48*48*48 grid
  Fine grid: 96*96*96 grid
  Total Charge: 0.000000 

Density mixing:
  Method: sum
  Backend: pulay
  Linear mixing parameter: 0.25
  Mixing with 3 old densities
  No damping of long wave oscillations 

Hamiltonian:
  XC and Coulomb potentials evaluated on a 96*96*96 grid
  Using the LDA Exchange-Correlation functional
  Interpolation: tri-quintic (5. degree polynomial)
  Poisson solver: Jacobi solver with 6 multi-grid levels
    Coarsest grid: 3 x 3 x 3 points
    Stencil: 6*3+1=19 point O(h^6) finite-difference Laplacian
    Tolerance: 2.000000e-10
    Max iterations: 1000 

Memory estimate:
  Process memory now: 214.80 MiB
  Calculator: 74.40 MiB
    Density: 34.35 MiB
      Arrays: 28.54 MiB
      Localized functions: 1.05 MiB
      Mixer: 4.75 MiB
    Hamiltonian: 37.18 MiB
      Arrays: 21.21 MiB
      XC: 0.00 MiB
      Poisson: 15.89 MiB
      vbar: 0.08 MiB
    Wavefunctions: 2.87 MiB
      C [qnM]: 0.00 MiB
      S, T [2 x qmm]: 0.01 MiB
      P [aqMi]: 0.00 MiB
      TCI: 0.00 MiB
      BasisFunctions: 2.86 MiB
      Eigensolver: 0.00 MiB

Total number of cores used: 1

Number of atoms: 2
Number of atomic orbitals: 26
Number of bands in calculation: 8
Bands to converge: occupied states only
Number of valence electrons: 8

... initialized

Initializing position-dependent things.

Density initialized from atomic densities
       .------------------------.  
      /|                        |  
     / |                        |  
    /  |                        |  
   /   |                        |  
  /    |                        |  
 *     |                        |  
 |     |                        |  
 |     |                        |  
 |     |     C      C           |  
 |     |                        |  
 |     |                        |  
 |     .------------------------.  
 |    /                        /   
 |   /                        /    
 |  /                        /     
 | /                        /      
 |/                        /       
 *------------------------*        

Positions:
   0 C      3.770000    5.000000    5.000000
   1 C      6.230000    5.000000    5.000000

Unit cell:
           periodic     x           y           z      points  spacing
  1. axis:    no    10.000000    0.000000    0.000000    48     0.2083
  2. axis:    no     0.000000   10.000000    0.000000    48     0.2083
  3. axis:    no     0.000000    0.000000   10.000000    48     0.2083

                     log10-error:    total        iterations:
           time      wfs    density  energy       fermi  poisson  magmom
iter:   1  06:53:02          +inf    -3.044283    2      15       +0.0000
iter:   2  06:53:04         -0.88    -2.894807    31     7        +0.0000
iter:   3  06:53:06         -1.04    -2.764575    32     8        +0.0000
iter:   4  06:53:07         -1.90    -2.759612    4      6        +0.0000
iter:   5  06:53:09         -2.44    -2.758738    3      5        +0.0000
iter:   6  06:53:10         -2.98    -2.758736    2      3        +0.0000
iter:   7  06:53:11         -3.12    -2.758774    2      4        +0.0000
iter:   8  06:53:12         -3.81    -2.758794    2      2        +0.0000
iter:   9  06:53:13         -4.06    -2.758808    2      2        +0.0000

Converged after 9 iterations.

Dipole moment: (-0.000000, 0.000000, 0.000000) |e|*Ang

Total magnetic moment: 0.000000
Local magnetic moments:
   0 C  0.000000
   1 C  0.000000

Energy contributions relative to reference atoms: (reference = -2037.605076)

Kinetic:         -4.815946
Potential:       +3.275756
External:        +0.000000
XC:              -1.255827
Entropy (-ST):   -0.297009
Local:           +0.185714
--------------------------
Free energy:     -2.907312
Extrapolated:    -2.758808

Spin contamination: 0.000000 electrons
Fermi levels: -5.52493, -5.52493

                   Up                     Down
 Band  Eigenvalues  Occupancy  Eigenvalues  Occupancy
    0    -13.97223    1.00000    -13.97223    1.00000
    1    -12.55116    1.00000    -12.55116    1.00000
    2     -5.91535    0.98024     -5.91535    0.98024
    3     -5.52884    0.50978     -5.52884    0.50978
    4     -5.52884    0.50978     -5.52884    0.50978
    5     -4.60352    0.00010     -4.60352    0.00010
    6     -4.60352    0.00010     -4.60352    0.00010
    7     -2.84213    0.00000     -2.84213    0.00000

