
  ___ ___ ___ _ _ _  
 |   |   |_  | | | | 
 | | | | | . | | | | 
 |__ |  _|___|_____|  1.2.0
 |___|_|             

User:   vladislav@vladislav-ThinkPad-T530
Date:   Tue Mar  6 17:38:51 2018
Arch:   x86_64
Pid:    2130
Python: 2.7.14
gpaw:   /home/vladislav/.local/lib/python2.7/site-packages/gpaw
_gpaw:  /home/vladislav/.local/lib/python2.7/site-packages/_gpaw.so
ase:    /home/vladislav/.local/lib/python2.7/site-packages/ase (version 3.13.0)
numpy:  /usr/lib/python2.7/dist-packages/numpy (version 1.12.1)
scipy:  /usr/lib/python2.7/dist-packages/scipy (version 0.18.1)
units:  Angstrom and eV
cores:  1

Input parameters:
  basis: dzp
  h: 0.14
  kpts: [8 8 8]
  mode: lcao

System changes: positions, numbers, cell, pbc, initial_charges, initial_magmoms 

Initialize ...

H-setup:
  name: Hydrogen
  id: 4766778ce56282eaa64abeb28b7c1de3
  Z: 1
  valence: 1
  core: 0
  charge: 0.0
  file: /home/vladislav/gpaw-data/gpaw-setups-0.9.20000/H.LDA.gz
  cutoffs: 0.48(comp), 0.85(filt), 0.53(core), lmax=2
  valence states:
                energy  radius
    1s(1.00)    -6.353   0.476
    *s          20.858   0.476
    *p           0.000   0.476

  LCAO basis set for H:
    Name: dzp
    File: /home/vladislav/gpaw-data/gpaw-setups-0.9.20000/H.dzp.basis.gz
    Number of radial functions: 3
    Number of spherical harmonics: 5
      l=0, rc=6.4219 Bohr: 1s-sz confined orbital
      l=0, rc=3.6094 Bohr: 1s-dz split-valence wave
      l=1, rc=6.4219 Bohr: p-type Gaussian polarization

Reference energy: -24.257917

Spin-paired calculation

Occupation numbers:
  Fermi-Dirac: width=0.1000 eV

Convergence criteria:
  Maximum total energy change: 0.0005 eV / electron
  Maximum integral of absolute density change: 0.0001 electrons
  Maximum integral of absolute eigenstate change: 4e-08 eV^2
  Maximum number of iterations: 333

Symmetries present (total): 48

  ( 1  0  0)  ( 1  0  0)  ( 1  0  0)  ( 1  0  0)  ( 1  0  0)  ( 1  0  0)
  ( 0  1  0)  ( 0  1  0)  ( 0  0  1)  ( 0  0  1)  ( 0  0 -1)  ( 0  0 -1)
  ( 0  0  1)  ( 0  0 -1)  ( 0  1  0)  ( 0 -1  0)  ( 0  1  0)  ( 0 -1  0)

  ( 1  0  0)  ( 1  0  0)  ( 0  1  0)  ( 0  1  0)  ( 0  1  0)  ( 0  1  0)
  ( 0 -1  0)  ( 0 -1  0)  ( 1  0  0)  ( 1  0  0)  ( 0  0  1)  ( 0  0  1)
  ( 0  0  1)  ( 0  0 -1)  ( 0  0  1)  ( 0  0 -1)  ( 1  0  0)  (-1  0  0)

  ( 0  1  0)  ( 0  1  0)  ( 0  1  0)  ( 0  1  0)  ( 0  0  1)  ( 0  0  1)
  ( 0  0 -1)  ( 0  0 -1)  (-1  0  0)  (-1  0  0)  ( 1  0  0)  ( 1  0  0)
  ( 1  0  0)  (-1  0  0)  ( 0  0  1)  ( 0  0 -1)  ( 0  1  0)  ( 0 -1  0)

  ( 0  0  1)  ( 0  0  1)  ( 0  0  1)  ( 0  0  1)  ( 0  0  1)  ( 0  0  1)
  ( 0  1  0)  ( 0  1  0)  ( 0 -1  0)  ( 0 -1  0)  (-1  0  0)  (-1  0  0)
  ( 1  0  0)  (-1  0  0)  ( 1  0  0)  (-1  0  0)  ( 0  1  0)  ( 0 -1  0)

  ( 0  0 -1)  ( 0  0 -1)  ( 0  0 -1)  ( 0  0 -1)  ( 0  0 -1)  ( 0  0 -1)
  ( 1  0  0)  ( 1  0  0)  ( 0  1  0)  ( 0  1  0)  ( 0 -1  0)  ( 0 -1  0)
  ( 0  1  0)  ( 0 -1  0)  ( 1  0  0)  (-1  0  0)  ( 1  0  0)  (-1  0  0)

  ( 0  0 -1)  ( 0  0 -1)  ( 0 -1  0)  ( 0 -1  0)  ( 0 -1  0)  ( 0 -1  0)
  (-1  0  0)  (-1  0  0)  ( 1  0  0)  ( 1  0  0)  ( 0  0  1)  ( 0  0  1)
  ( 0  1  0)  ( 0 -1  0)  ( 0  0  1)  ( 0  0 -1)  ( 1  0  0)  (-1  0  0)

  ( 0 -1  0)  ( 0 -1  0)  ( 0 -1  0)  ( 0 -1  0)  (-1  0  0)  (-1  0  0)
  ( 0  0 -1)  ( 0  0 -1)  (-1  0  0)  (-1  0  0)  ( 0  1  0)  ( 0  1  0)
  ( 1  0  0)  (-1  0  0)  ( 0  0  1)  ( 0  0 -1)  ( 0  0  1)  ( 0  0 -1)

  (-1  0  0)  (-1  0  0)  (-1  0  0)  (-1  0  0)  (-1  0  0)  (-1  0  0)
  ( 0  0  1)  ( 0  0  1)  ( 0  0 -1)  ( 0  0 -1)  ( 0 -1  0)  ( 0 -1  0)
  ( 0  1  0)  ( 0 -1  0)  ( 0  1  0)  ( 0 -1  0)  ( 0  0  1)  ( 0  0 -1)

512 k-points: 8 x 8 x 8 Monkhorst-Pack grid
20 k-points in the irreducible part of the Brillouin zone
       k-points in crystal coordinates                weights
   0:     0.06250000    0.06250000    0.06250000          8/512
   1:     0.18750000    0.06250000    0.06250000         24/512
   2:     0.18750000    0.18750000    0.06250000         24/512
   3:     0.18750000    0.18750000    0.18750000          8/512
   4:     0.31250000    0.06250000    0.06250000         24/512
   5:     0.31250000    0.18750000    0.06250000         48/512
   6:     0.31250000    0.18750000    0.18750000         24/512
   7:     0.31250000    0.31250000    0.06250000         24/512
   8:     0.31250000    0.31250000    0.18750000         24/512
   9:     0.31250000    0.31250000    0.31250000          8/512
          ...
  19:     0.43750000    0.43750000    0.43750000          8/512

Wave functions: LCAO
  Diagonalizer: Serial LAPACK
  Atomic Correction: dense with blas
  Datatype: complex
  Eigensolver: None 

LCAO using direct dense diagonalizer 

Densities:
  Coarse grid: 8*8*8 grid
  Fine grid: 16*16*16 grid
  Total Charge: 0.000000 

Density mixing:
  Method: separate
  Backend: pulay
  Linear mixing parameter: 0.05
  Mixing with 5 old densities
  Damping of long wave oscillations: 50 

Hamiltonian:
  XC and Coulomb potentials evaluated on a 16*16*16 grid
  Using the LDA Exchange-Correlation functional
  Interpolation: tri-quintic (5. degree polynomial)
  Poisson solver: Jacobi solver with 5 multi-grid levels
    Coarsest grid: 1 x 1 x 1 points
    Stencil: 6*3+1=19 point O(h^6) finite-difference Laplacian
    Tolerance: 2.000000e-10
    Max iterations: 1000 

Memory estimate:
  Process memory now: 129.04 MiB
  Calculator: 12.67 MiB
    Density: 3.46 MiB
      Arrays: 0.10 MiB
      Localized functions: 3.32 MiB
      Mixer: 0.04 MiB
    Hamiltonian: 0.40 MiB
      Arrays: 0.07 MiB
      XC: 0.00 MiB
      Poisson: 0.08 MiB
      vbar: 0.26 MiB
    Wavefunctions: 8.81 MiB
      C [qnM]: 0.01 MiB
      S, T [2 x qmm]: 0.06 MiB
      P [aqMi]: 0.00 MiB
      TCI: 0.00 MiB
      BasisFunctions: 8.74 MiB
      Eigensolver: 0.00 MiB

Total number of cores used: 1

Number of atoms: 2
Number of atomic orbitals: 10
Number of bands in calculation: 2
Bands to converge: occupied states only
Number of valence electrons: 2

... initialized

Initializing position-dependent things.

Density initialized from atomic densities
  .-.  
 *H-.  
 H-*   

Positions:
   0 H      0.000000    0.000000    0.000000
   1 H      0.425000    0.425000    0.425000

Unit cell:
           periodic     x           y           z      points  spacing
  1. axis:    yes    0.850000    0.000000    0.000000     8     0.1062
  2. axis:    yes    0.000000    0.850000    0.000000     8     0.1062
  3. axis:    yes    0.000000    0.000000    0.850000     8     0.1062

                     log10-error:    total        iterations:
           time      wfs    density  energy       fermi  poisson
iter:   1  17:39:07          +inf    21.599327    3      12     
iter:   2  17:41:46         -1.37    21.536673    3      5      
iter:   3  17:44:28         -1.39    21.152702    29     8      
iter:   4  17:47:03         -2.54    21.150702    3      6      
iter:   5  17:49:46         -2.58    21.150708    2      5      
iter:   6  17:52:08         -3.33    21.150685    2      4      
iter:   7  17:54:29         -4.06    21.150702    2      3      

Converged after 7 iterations.

Energy contributions relative to reference atoms: (reference = -24.257917)

Kinetic:        +77.005551
Potential:      -33.451151
External:        +0.000000
XC:             -22.567219
Entropy (-ST):   -0.017707
Local:           +0.172375
--------------------------
Free energy:    +21.141848
Extrapolated:   +21.150702

Fermi level: 52.50600

Warning: Showing only first 2 kpts
 Kpt  Band  Eigenvalues  Occupancy
  0     0    -25.09473    0.03125
  0     1    142.20084    0.00000

  1     0    -18.60356    0.09375
  1     1    110.02934    0.00000


Timing:                              incl.     excl.
-----------------------------------------------------------
Basic WFS set positions:             0.005     0.005   0.0% |
Basis functions set positions:       0.130     0.130   0.0% |
LCAO WFS Initialize:                 0.051     0.012   0.0% |
 Hamiltonian:                        0.038     0.000   0.0% |
  Atomic:                            0.021     0.001   0.0% |
   XC Correction:                    0.021     0.021   0.0% |
  Calculate atomic Hamiltonians:     0.002     0.002   0.0% |
  Communicate:                       0.000     0.000   0.0% |
  Hartree integrate/restrict:        0.000     0.000   0.0% |
  Initialize Hamiltonian:            0.002     0.002   0.0% |
  Poisson:                           0.010     0.010   0.0% |
  XC 3D grid:                        0.002     0.002   0.0% |
  vbar:                              0.000     0.000   0.0% |
SCF-cycle:                         931.639     0.055   0.0% |
 Density:                          869.378     0.000   0.0% |
  Atomic density matrices:           0.008     0.008   0.0% |
  Mix:                               0.015     0.015   0.0% |
  Multipole moments:                 0.001     0.001   0.0% |
  Normalize:                         0.000     0.000   0.0% |
  Pseudo density:                  869.353     0.003   0.0% |
   Calculate density matrix:         0.011     0.011   0.0% |
   Construct density:              869.330   869.330  80.2% |-------------------------------|
   Symmetrize density:               0.009     0.009   0.0% |
 Hamiltonian:                        0.169     0.000   0.0% |
  Atomic:                            0.119     0.004   0.0% |
   XC Correction:                    0.115     0.115   0.0% |
  Calculate atomic Hamiltonians:     0.013     0.013   0.0% |
  Communicate:                       0.000     0.000   0.0% |
  Hartree integrate/restrict:        0.001     0.001   0.0% |
  Poisson:                           0.024     0.024   0.0% |
  XC 3D grid:                        0.011     0.011   0.0% |
  vbar:                              0.000     0.000   0.0% |
 LCAO eigensolver:                  62.038     0.008   0.0% |
  Calculate projections:             0.003     0.003   0.0% |
  DenseAtomicCorrection:             0.024     0.024   0.0% |
  Distribute overlap matrix:         0.011     0.011   0.0% |
  Orbital Layouts:                   0.193     0.193   0.0% |
  Potential matrix:                 57.223    57.223   5.3% |-|
  Sum over cells:                    4.576     4.576   0.4% |
Set symmetry:                        0.048     0.048   0.0% |
TCI: Calculate S, T, P:              6.089     6.089   0.6% |
TCI: Evaluate splines:               0.021     0.021   0.0% |
Other:                             145.866   145.866  13.5% |----|
-----------------------------------------------------------
Total:                                      1083.850 100.0%

Memory usage: 129.04 MiB
Date: Tue Mar  6 17:56:55 2018
