
  ___ ___ ___ _ _ _  
 |   |   |_  | | | | 
 | | | | | . | | | | 
 |__ |  _|___|_____|  1.2.0
 |___|_|             

User:   user@ubuntu
Date:   Mon Mar  5 07:45:45 2018
Arch:   x86_64
Pid:    10703
Python: 3.6.3
gpaw:   /usr/lib/python3/dist-packages/gpaw
_gpaw:  /usr/lib/python3/dist-packages/_gpaw.cpython-36m-x86_64-linux-gnu.so
ase:    /home/user/.local/lib/python3.6/site-packages/ase (version 3.15.0)
numpy:  /home/user/.local/lib/python3.6/site-packages/numpy (version 1.14.0)
scipy:  /home/user/.local/lib/python3.6/site-packages/scipy (version 1.0.0)
units:  Angstrom and eV
cores:  1

Input parameters:
  basis: dzp
  kpts: [100   1   1]
  mode: lcao
  nbands: -10

System changes: positions, numbers, cell, pbc, initial_charges, initial_magmoms 

Initialize ...

Hg-setup:
  name: Mercury
  id: d598334152d8169f0bb52588063c3103
  Z: 80
  valence: 18
  core: 62
  charge: 0.0
  file: /usr/share/gpaw-setups/Hg.LDA.gz
  cutoffs: 1.29(comp), 2.17(filt), 2.06(core), lmax=2
  valence states:
                energy  radius
    6s(2.00)    -7.094   1.307
    5p(6.00)   -66.817   1.291
    6p(0.00)    -1.195   1.291
    5d(10.00)   -10.099   1.302
    *s          20.118   1.307
    *d          17.112   1.302

  LCAO basis set for Hg:
    Name: dzp
    File: /usr/share/gpaw-setups/Hg.dzp.basis.gz
    Number of radial functions: 9
    Number of spherical harmonics: 27
      l=0, rc=7.9688 Bohr: 6s-sz confined orbital
      l=1, rc=3.3594 Bohr: 5p-sz confined orbital
      l=1, rc=12.7031 Bohr: 6p-sz confined orbital
      l=2, rc=5.3594 Bohr: 5d-sz confined orbital
      l=0, rc=4.6406 Bohr: 6s-dz split-valence wave
      l=1, rc=2.2656 Bohr: 5p-dz split-valence wave
      l=1, rc=7.7500 Bohr: 6p-dz split-valence wave
      l=2, rc=3.2656 Bohr: 5d-dz split-valence wave
      l=1, rc=7.9688 Bohr: p-type Gaussian polarization

Reference energy: -1598594.883238

Spin-paired calculation

Occupation numbers:
  Fermi-Dirac: width=0.1000 eV

Convergence criteria:
  Maximum total energy change: 0.0005 eV / electron
  Maximum integral of absolute density change: 0.0001 electrons
  Maximum integral of absolute eigenstate change: 4e-08 eV^2
  Maximum number of iterations: 333

Symmetries present (total): 2

  ( 1  0  0)  (-1  0  0)
  ( 0  1  0)  ( 0  1  0)
  ( 0  0  1)  ( 0  0  1)

100 k-points: 100 x 1 x 1 Monkhorst-Pack grid
50 k-points in the irreducible part of the Brillouin zone
       k-points in crystal coordinates                weights
   0:     0.00500000    0.00000000    0.00000000          2/100
   1:     0.01500000    0.00000000    0.00000000          2/100
   2:     0.02500000    0.00000000    0.00000000          2/100
   3:     0.03500000    0.00000000    0.00000000          2/100
   4:     0.04500000    0.00000000    0.00000000          2/100
   5:     0.05500000    0.00000000    0.00000000          2/100
   6:     0.06500000    0.00000000    0.00000000          2/100
   7:     0.07500000    0.00000000    0.00000000          2/100
   8:     0.08500000    0.00000000    0.00000000          2/100
   9:     0.09500000    0.00000000    0.00000000          2/100
          ...
  49:     0.49500000    0.00000000    0.00000000          2/100

Wave functions: LCAO
  Diagonalizer: Serial LAPACK
  Atomic Correction: dense with blas
  Datatype: complex
  Eigensolver: None 

LCAO using direct dense diagonalizer 

Densities:
  Coarse grid: 36*48*48 grid
  Fine grid: 72*96*96 grid
  Total Charge: 0.000000 

Density mixing:
  Method: separate
  Backend: pulay
  Linear mixing parameter: 0.05
  Mixing with 5 old densities
  Damping of long wave oscillations: 50 

Hamiltonian:
  XC and Coulomb potentials evaluated on a 72*96*96 grid
  Using the LDA Exchange-Correlation functional
  Interpolation: tri-quintic (5. degree polynomial)
  Poisson solver: Jacobi solver with 4 multi-grid levels
    Coarsest grid: 9 x 12 x 12 points
    Stencil: 6*3+1=19 point O(h^6) finite-difference Laplacian
    Tolerance: 2.000000e-10
    Max iterations: 1000 

Memory estimate:
  Process memory now: 474.54 MiB
  Calculator: 88.69 MiB
    Density: 35.88 MiB
      Arrays: 16.09 MiB
      Localized functions: 13.73 MiB
      Mixer: 6.07 MiB
    Hamiltonian: 23.39 MiB
      Arrays: 10.52 MiB
      XC: 0.00 MiB
      Poisson: 12.01 MiB
      vbar: 0.87 MiB
    Wavefunctions: 29.42 MiB
      C [qnM]: 2.29 MiB
      S, T [2 x qmm]: 10.01 MiB
      P [aqMi]: 0.21 MiB
      TCI: 0.00 MiB
      BasisFunctions: 16.91 MiB
      Eigensolver: 0.00 MiB

Total number of cores used: 1

Number of atoms: 3
Number of atomic orbitals: 81
Number of bands in calculation: 37
Bands to converge: occupied states only
Number of valence electrons: 54

... initialized

Initializing position-dependent things.

Density initialized from atomic densities
       .-----------------.  
      /|                 |  
     / |                 |  
    /  |                 |  
   /   |                 |  
  /    |                 |  
 *     |                 |  
 |     |                 |  
 |     |                 |  
 |     Hg    Hg    Hg    |  
 |     |                 |  
 |     |                 |  
 |     .-----------------.  
 |    /                 /   
 |   /                 /    
 |  /                 /     
 | /                 /      
 |/                 /       
 *-----------------*        

Positions:
   0 Hg     1.250000    5.000000    5.000000
   1 Hg     3.750000    5.000000    5.000000
   2 Hg     6.250000    5.000000    5.000000

Unit cell:
           periodic     x           y           z      points  spacing
  1. axis:    yes    7.500000    0.000000    0.000000    36     0.2083
  2. axis:    no     0.000000   10.000000    0.000000    48     0.2083
  3. axis:    no     0.000000    0.000000   10.000000    48     0.2083

                     log10-error:    total        iterations:
           time      wfs    density  energy       fermi  poisson
iter:   1  07:45:51          +inf     0.746009    4      31     
iter:   2  07:45:59         -1.48     0.901045    4      12     
iter:   3  07:46:08         -1.52     1.322322    33     22     
iter:   4  07:46:16         -1.97     1.310238    4      11     
iter:   5  07:46:24         -2.08     1.461867    31     16     
iter:   6  07:46:32         -2.99     1.462770    3      5      
iter:   7  07:46:39         -3.10     1.463306    2      5      
iter:   8  07:46:46         -4.32     1.463490    2      3      

Converged after 8 iterations.

Dipole moment: (0.599831, -0.000000, -0.000000) |e|*Ang

Energy contributions relative to reference atoms: (reference = -1598594.883238)

Kinetic:        +56.589530
Potential:      -47.045297
External:        +0.000000
XC:              -8.251911
Entropy (-ST):   -0.106873
Local:           +0.224605
--------------------------
Free energy:     +1.410053
Extrapolated:    +1.463490

Fermi level: -3.09347

Warning: Showing only first 2 kpts
 Kpt  Band  Eigenvalues  Occupancy
  0    25     -6.81284    0.04000
  0    26     -6.74359    0.04000
  0    27     -3.01564    0.01259
  0    28     -3.01564    0.01259

  1    25     -6.88059    0.04000
  1    26     -6.67284    0.04000
  1    27     -3.01470    0.01251
  1    28     -3.01470    0.01251


        0.978     0.000   0.0% |
  Atomic:                            0.036     0.001   0.0% |
   XC Correction:                    0.035     0.035   0.2% |
  Calculate atomic Hamiltonians:     0.002     0.002   0.0% |
  Communicate:                       0.000     0.000   0.0% |
  Hartree integrate/restrict:        0.003     0.003   0.0% |
  Initialize Hamiltonian:            0.002     0.002   0.0% |
  Poisson:                           0.877     0.877   4.4% |-|
  XC 3D grid:                        0.058     0.058   0.3% |
  vbar:                              0.001     0.001   0.0% |
SCF-cycle:                          17.643     0.244   1.2% |
 Density:                           14.227     0.000   0.0% |
  Atomic density matrices:           0.015     0.015   0.1% |
  Mix:                               0.050     0.050   0.2% |
  Multipole moments:                 0.001     0.001   0.0% |
  Normalize:                         0.001     0.001   0.0% |
  Pseudo density:                   14.161     0.005   0.0% |
   Calculate density matrix:         0.024     0.024   0.1% |
   Construct density:               14.111    14.111  70.2% |---------------------------|
   Symmetrize density:               0.021     0.021   0.1% |
 Hamiltonian:                        2.562     0.001   0.0% |
  Atomic:                            0.257     0.005   0.0% |
   XC Correction:                    0.252     0.252   1.3% ||
  Calculate atomic Hamiltonians:     0.012     0.012   0.1% |
  Communicate:                       0.000     0.000   0.0% |
  Hartree integrate/restrict:        0.019     0.019   0.1% |
  Poisson:                           1.881     1.881   9.3% |---|
  XC 3D grid:                        0.388     0.388   1.9% ||
  vbar:                              0.004     0.004   0.0% |
 LCAO eigensolver:                   0.609     0.016   0.1% |
  Calculate projections:             0.011     0.011   0.1% |
  DenseAtomicCorrection:             0.050     0.050   0.2% |
  Distribute overlap matrix:         0.010     0.010   0.0% |
  Orbital Layouts:                   0.148     0.148   0.7% |
  Potential matrix:                  0.308     0.308   1.5% ||
  Sum over cells:                    0.066     0.066   0.3% |
Set symmetry:                        0.004     0.004   0.0% |
TCI: Calculate S, T, P:              0.114     0.114   0.6% |
TCI: Evaluate splines:               0.409     0.409   2.0% ||
Other:                               0.949     0.949   4.7% |-|
-----------------------------------------------------------
Total:                                        20.114 100.0%

Memory usage: 474.54 MiB
Date: Mon Mar  5 07:45:45 2018
