
  ___ ___ ___ _ _ _  
 |   |   |_  | | | | 
 | | | | | . | | | | 
 |__ |  _|___|_____|  1.2.0
 |___|_|             

User:   user@ubuntu
Date:   Mon Mar  5 07:38:13 2018
Arch:   x86_64
Pid:    10703
Python: 3.6.3
gpaw:   /usr/lib/python3/dist-packages/gpaw
_gpaw:  /usr/lib/python3/dist-packages/_gpaw.cpython-36m-x86_64-linux-gnu.so
ase:    /home/user/.local/lib/python3.6/site-packages/ase (version 3.15.0)
numpy:  /home/user/.local/lib/python3.6/site-packages/numpy (version 1.14.0)
scipy:  /home/user/.local/lib/python3.6/site-packages/scipy (version 1.0.0)
units:  Angstrom and eV
cores:  1

Input parameters:
  basis: dzp
  mode: lcao
  nbands: -10

System changes: positions, numbers, cell, pbc, initial_charges, initial_magmoms 

Initialize ...

Hg-setup:
  name: Mercury
  id: d598334152d8169f0bb52588063c3103
  Z: 80
  valence: 18
  core: 62
  charge: 0.0
  file: /usr/share/gpaw-setups/Hg.LDA.gz
  cutoffs: 1.29(comp), 2.17(filt), 2.06(core), lmax=2
  valence states:
                energy  radius
    6s(2.00)    -7.094   1.307
    5p(6.00)   -66.817   1.291
    6p(0.00)    -1.195   1.291
    5d(10.00)   -10.099   1.302
    *s          20.118   1.307
    *d          17.112   1.302

  LCAO basis set for Hg:
    Name: dzp
    File: /usr/share/gpaw-setups/Hg.dzp.basis.gz
    Number of radial functions: 9
    Number of spherical harmonics: 27
      l=0, rc=7.9688 Bohr: 6s-sz confined orbital
      l=1, rc=3.3594 Bohr: 5p-sz confined orbital
      l=1, rc=12.7031 Bohr: 6p-sz confined orbital
      l=2, rc=5.3594 Bohr: 5d-sz confined orbital
      l=0, rc=4.6406 Bohr: 6s-dz split-valence wave
      l=1, rc=2.2656 Bohr: 5p-dz split-valence wave
      l=1, rc=7.7500 Bohr: 6p-dz split-valence wave
      l=2, rc=3.2656 Bohr: 5d-dz split-valence wave
      l=1, rc=7.9688 Bohr: p-type Gaussian polarization

Reference energy: -1065729.922159

Spin-paired calculation

Occupation numbers:
  Fermi-Dirac: width=0.0000 eV

Convergence criteria:
  Maximum total energy change: 0.0005 eV / electron
  Maximum integral of absolute density change: 0.0001 electrons
  Maximum integral of absolute eigenstate change: 4e-08 eV^2
  Maximum number of iterations: 333

Symmetries present (total): 1

  ( 1  0  0)
  ( 0  1  0)
  ( 0  0  1)

1 k-point (Gamma)
1 k-point in the irreducible part of the Brillouin zone
       k-points in crystal coordinates                weights
   0:     0.00000000    0.00000000    0.00000000          1/1

Wave functions: LCAO
  Diagonalizer: Serial LAPACK
  Atomic Correction: dense with blas
  Datatype: float
  Eigensolver: None 

LCAO using direct dense diagonalizer 

Densities:
  Coarse grid: 48*48*48 grid
  Fine grid: 96*96*96 grid
  Total Charge: 0.000000 

Density mixing:
  Method: separate
  Backend: pulay
  Linear mixing parameter: 0.25
  Mixing with 3 old densities
  No damping of long wave oscillations 

Hamiltonian:
  XC and Coulomb potentials evaluated on a 96*96*96 grid
  Using the LDA Exchange-Correlation functional
  Interpolation: tri-quintic (5. degree polynomial)
  Poisson solver: Jacobi solver with 6 multi-grid levels
    Coarsest grid: 3 x 3 x 3 points
    Stencil: 6*3+1=19 point O(h^6) finite-difference Laplacian
    Tolerance: 2.000000e-10
    Max iterations: 1000 

Memory estimate:
  Process memory now: 343.90 MiB
  Calculator: 76.78 MiB
    Density: 35.11 MiB
      Arrays: 21.21 MiB
      Localized functions: 9.15 MiB
      Mixer: 4.75 MiB
    Hamiltonian: 30.34 MiB
      Arrays: 13.87 MiB
      XC: 0.00 MiB
      Poisson: 15.89 MiB
      vbar: 0.58 MiB
    Wavefunctions: 11.33 MiB
      C [qnM]: 0.01 MiB
      S, T [2 x qmm]: 0.04 MiB
      P [aqMi]: 0.00 MiB
      TCI: 0.00 MiB
      BasisFunctions: 11.27 MiB
      Eigensolver: 0.00 MiB

Total number of cores used: 1

Number of atoms: 2
Number of atomic orbitals: 54
Number of bands in calculation: 28
Bands to converge: occupied states only
Number of valence electrons: 36

... initialized

Initializing position-dependent things.

Density initialized from atomic densities
       .------------------------.  
      /|                        |  
     / |                        |  
    /  |                        |  
   /   |                        |  
  /    |                        |  
 *     |                        |  
 |     |                        |  
 |     |                        |  
 |     |     Hg     Hg          |  
 |     |                        |  
 |     |                        |  
 |     .------------------------.  
 |    /                        /   
 |   /                        /    
 |  /                        /     
 | /                        /      
 |/                        /       
 *------------------------*        

Positions:
   0 Hg     3.480000    5.000000    5.000000
   1 Hg     6.520000    5.000000    5.000000

Unit cell:
           periodic     x           y           z      points  spacing
  1. axis:    no    10.000000    0.000000    0.000000    48     0.2083
  2. axis:    no     0.000000   10.000000    0.000000    48     0.2083
  3. axis:    no     0.000000    0.000000   10.000000    48     0.2083

                     log10-error:    total        iterations:
           time      wfs    density  energy       fermi  poisson
iter:   1  07:38:16          +inf     0.905160    0      11     
iter:   2  07:38:17         -1.72     1.007736    0      6      
iter:   3  07:38:18         -1.92     1.022685    0      6      
iter:   4  07:38:19         -2.47     1.029866    0      6      
iter:   5  07:38:20         -3.36     1.030064    0      4      
iter:   6  07:38:21         -3.70     1.029971    0      4      
iter:   7  07:38:22         -4.10     1.029724    0      2      

Converged after 7 iterations.

Dipole moment: (0.000000, -0.000000, -0.000000) |e|*Ang

Energy contributions relative to reference atoms: (reference = -1065729.922159)

Kinetic:        +33.876936
Potential:      -29.480217
External:        +0.000000
XC:              -3.587299
Entropy (-ST):   +0.000000
Local:           +0.220304
--------------------------
Free energy:     +1.029724
Extrapolated:    +1.029724

Fermi level: -3.76304

 Band  Eigenvalues  Occupancy
    0    -66.18705    2.00000
    1    -66.16621    2.00000
    2    -66.14462    2.00000
    3    -66.14462    2.00000
    4    -66.14303    2.00000
    5    -66.14303    2.00000
    6    -10.16520    2.00000
    7     -9.75180    2.00000
    8     -9.75180    2.00000
    9     -9.53505    2.00000
   10     -9.53501    2.00000
   11     -9.48736    2.00000
   12     -9.48733    2.00000
   13     -9.36394    2.00000
   14     -9.36394    2.00000
   15     -9.26712    2.00000
   16     -7.68868    2.00000
   17     -5.91122    2.00000
   18     -1.61487    0.00000
   19     -1.61487    0.00000
   20     -1.46771    0.00000
   21     -0.13648    0.00000
   22     -0.13648    0.00000
   23      1.2232Timing:                              incl.     excl.
-----------------------------------------------------------
Basic WFS set positions:             0.000     0.000   0.0% |
Basis functions set positions:       0.016     0.016   0.0% |
LCAO WFS Initialize:                 1.893     0.026   0.0% |
 Hamiltonian:                        1.867     0.000   0.0% |
  Atomic:                            0.075     0.001   0.0% |
   XC Correction:                    0.074     0.074   0.0% |
  Calculate atomic Hamiltonians:     0.003     0.003   0.0% |
  Communicate:                       0.000     0.000   0.0% |
  Hartree integrate/restrict:        0.012     0.012   0.0% |
  Initialize Hamiltonian:            0.005     0.005   0.0% |
  Poisson:                           1.550     1.550   0.2% |
  XC 3D grid:                        0.218     0.218   0.0% |
  vbar:                              0.005     0.005   0.0% |
SCF-cycle:                           6.276     0.002   0.0% |
 Density:                            0.325     0.000   0.0% |
  Atomic density matrices:           0.004     0.004   0.0% |
  Mix:                               0.134     0.134   0.0% |
  Multipole moments:                 0.001     0.001   0.0% |
  Normalize:                         0.001     0.001   0.0% |
  Pseudo density:                    0.184     0.002   0.0% |
   Calculate density matrix:         0.001     0.001   0.0% |
   Construct density:                0.181     0.181   0.0% |
   Symmetrize density:               0.000     0.000   0.0% |
 Hamiltonian:                        5.718     0.001   0.0% |
  Atomic:                            0.441     0.006   0.0% |
   XC Correction:                    0.435     0.435   0.1% |
  Calculate atomic Hamiltonians:     0.019     0.019   0.0% |
  Communicate:                       0.000     0.000   0.0% |
  Hartree integrate/restrict:        0.076     0.076   0.0% |
  Poisson:                           3.851     3.851   0.5% |
  XC 3D grid:                        1.313     1.313   0.2% |
  vbar:                              0.017     0.017   0.0% |
 LCAO eigensolver:                   0.231     0.001   0.0% |
  Calculate projections:             0.000     0.000   0.0% |
  DenseAtomicCorrection:             0.002     0.002   0.0% |
  Distribute overlap matrix:         0.000     0.000   0.0% |
  Orbital Layouts:                   0.008     0.008   0.0% |
  Potential matrix:                  0.220     0.220   0.0% |
Set symmetry:                        0.000     0.000   0.0% |
TCI: Calculate S, T, P:              0.032     0.032   0.0% |
TCI: Evaluate splines:               0.394     0.394   0.1% |
Other:                             765.232   765.232  98.9% |---------------------------------------|
-----------------------------------------------------------
Total:                                       773.844 100.0%

Memory usage: 474.54 MiB
Date: Mon Mar  5 07:42:46 2018
