
  ___ ___ ___ _ _ _  
 |   |   |_  | | | | 
 | | | | | . | | | | 
 |__ |  _|___|_____|  1.2.0
 |___|_|             

User:   user@ubuntu
Date:   Mon Mar  5 06:31:55 2018
Arch:   x86_64
Pid:    11486
Python: 3.6.3
gpaw:   /usr/lib/python3/dist-packages/gpaw
_gpaw:  /usr/lib/python3/dist-packages/_gpaw.cpython-36m-x86_64-linux-gnu.so
ase:    /home/user/.local/lib/python3.6/site-packages/ase (version 3.15.0)
numpy:  /home/user/.local/lib/python3.6/site-packages/numpy (version 1.14.0)
scipy:  /home/user/.local/lib/python3.6/site-packages/scipy (version 1.0.0)
units:  Angstrom and eV
cores:  1

Input parameters:
  basis: dzp
  mode: lcao

System changes: positions, numbers, cell, pbc, initial_charges, initial_magmoms 

Initialize ...

Li-setup:
  name: Lithium
  id: b73562207f97a71b6967473b66fe8b65
  Z: 3
  valence: 1
  core: 2
  charge: 0.0
  file: /usr/share/gpaw-setups/Li.LDA.gz
  cutoffs: 1.06(comp), 1.91(filt), 2.55(core), lmax=2
  valence states:
                energy  radius
    2s(1.00)    -2.874   1.058
    2p(0.00)    -1.126   1.058
    *s          24.338   1.058

  LCAO basis set for Li:
    Name: dzp
    File: /usr/share/gpaw-setups/Li.dzp.basis.gz
    Number of radial functions: 3
    Number of spherical harmonics: 5
      l=0, rc=10.8906 Bohr: 2s-sz confined orbital
      l=0, rc=6.6719 Bohr: 2s-dz split-valence wave
      l=1, rc=10.8906 Bohr: p-type Gaussian polarization

Reference energy: -399.217591

Spin-paired calculation

Occupation numbers:
  Fermi-Dirac: width=0.0000 eV

Convergence criteria:
  Maximum total energy change: 0.0005 eV / electron
  Maximum integral of absolute density change: 0.0001 electrons
  Maximum integral of absolute eigenstate change: 4e-08 eV^2
  Maximum number of iterations: 333

Symmetries present (total): 1

  ( 1  0  0)
  ( 0  1  0)
  ( 0  0  1)

1 k-point (Gamma)
1 k-point in the irreducible part of the Brillouin zone
       k-points in crystal coordinates                weights
   0:     0.00000000    0.00000000    0.00000000          1/1

Wave functions: LCAO
  Diagonalizer: Serial LAPACK
  Atomic Correction: dense with blas
  Datatype: float
  Eigensolver: None 

LCAO using direct dense diagonalizer 

Densities:
  Coarse grid: 48*48*48 grid
  Fine grid: 96*96*96 grid
  Total Charge: 0.000000 

Density mixing:
  Method: separate
  Backend: pulay
  Linear mixing parameter: 0.25
  Mixing with 3 old densities
  No damping of long wave oscillations 

Hamiltonian:
  XC and Coulomb potentials evaluated on a 96*96*96 grid
  Using the LDA Exchange-Correlation functional
  Interpolation: tri-quintic (5. degree polynomial)
  Poisson solver: Jacobi solver with 6 multi-grid levels
    Coarsest grid: 3 x 3 x 3 points
    Stencil: 6*3+1=19 point O(h^6) finite-difference Laplacian
    Tolerance: 2.000000e-10
    Max iterations: 1000 

Memory estimate:
  Process memory now: 170.61 MiB
  Calculator: 66.78 MiB
    Density: 30.90 MiB
      Arrays: 21.21 MiB
      Localized functions: 4.94 MiB
      Mixer: 4.75 MiB
    Hamiltonian: 30.15 MiB
      Arrays: 13.87 MiB
      XC: 0.00 MiB
      Poisson: 15.89 MiB
      vbar: 0.39 MiB
    Wavefunctions: 5.73 MiB
      C [qnM]: 0.00 MiB
      S, T [2 x qmm]: 0.00 MiB
      P [aqMi]: 0.00 MiB
      TCI: 0.00 MiB
      BasisFunctions: 5.72 MiB
      Eigensolver: 0.00 MiB

Total number of cores used: 1

Number of atoms: 2
Number of atomic orbitals: 10
Number of bands in calculation: 8
Bands to converge: occupied states only
Number of valence electrons: 2

... initialized

Initializing position-dependent things.

Density initialized from atomic densities
       .------------------------.  
      /|                        |  
     / |                        |  
    /  |                        |  
   /   |                        |  
  /    |                        |  
 *     |                        |  
 |     |                        |  
 |     |                        |  
 |     |     Li     Li          |  
 |     |                        |  
 |     |                        |  
 |     .------------------------.  
 |    /                        /   
 |   /                        /    
 |  /                        /     
 | /                        /      
 |/                        /       
 *------------------------*        

Positions:
   0 Li     3.480000    5.000000    5.000000
   1 Li     6.520000    5.000000    5.000000

Unit cell:
           periodic     x           y           z      points  spacing
  1. axis:    no    10.000000    0.000000    0.000000    48     0.2083
  2. axis:    no     0.000000   10.000000    0.000000    48     0.2083
  3. axis:    no     0.000000    0.000000   10.000000    48     0.2083

                     log10-error:    total        iterations:
           time      wfs    density  energy       fermi  poisson
iter:   1  06:31:57          +inf    -1.474691    0      10     
iter:   2  06:31:58         -0.35    -1.368646    0      6      
iter:   3  06:31:59         -0.53    -1.293271    0      6      
iter:   4  06:32:00         -1.41    -1.294252    0      5      
iter:   5  06:32:01         -1.59    -1.293842    0      4      
iter:   6  06:32:01         -3.13    -1.293840    0      2      
iter:   7  06:32:02         -3.26    -1.293838    0      2      
iter:   8  06:32:02         -3.49    -1.293854    0      1      
iter:   9  06:32:03         -3.65    -1.293875    0      1      
iter:  10  06:32:03         -4.12    -1.293845    0      1      

Converged after 10 iterations.

Dipole moment: (0.000000, -0.000000, -0.000000) |e|*Ang

Energy contributions relative to reference atoms: (reference = -399.217591)

Kinetic:         +2.334020
Potential:       -2.016908
External:        +0.000000
XC:              -1.617138
Entropy (-ST):   +0.000000
Local:           +0.006182
--------------------------
Free energy:     -1.293845
Extrapolated:    -1.293845

Fermi level: -2.29098

 Band  Eigenvalues  Occupancy
    0     -2.94507    2.00000
    1     -1.63689    0.00000
    2      1.25982    0.00000
    3      2.29900    0.00000
    4      2.29900    0.00000
    5      3.38464    0.00000
    6      3.38464    0.00000
    7      4.90943    0.00000

