 DBCSR| Multiplication driver                                               BLAS
 DBCSR| Multrec recursion limit                                              512
 DBCSR| Multiplication stack size                                           1000
 DBCSR| Maximum elements for images                                    UNLIMITED
 DBCSR| Multiplicative factor virtual images                                   1
 DBCSR| Randmat seed                                                    12341313
 DBCSR| Multiplication size stacks                                             3
 DBCSR| Number of 3D layers                                               SINGLE
 DBCSR| Use MPI memory allocation                                              T
 DBCSR| Use RMA algorithm                                                      F
 DBCSR| Use Communication thread                                               T
 DBCSR| Communication thread load                                             87


  **** **** ******  **  PROGRAM STARTED AT               2018-03-24 08:24:28.716
 ***** ** ***  *** **   PROGRAM STARTED ON                                ubuntu
 **    ****   ******    PROGRAM STARTED BY                                  user
 ***** **    ** ** **   PROGRAM PROCESS ID                                 15762
  **** **  *******  **  PROGRAM STARTED IN       /home/user/LOKT.02.048/week5/IR

 CP2K| version string:                                          CP2K version 4.1
 CP2K| source code revision number:                                    svn:17462
 CP2K| cp2kflags: libint fftw3 libxc elpa3 parallel mpi3 scalapack              
 CP2K| is freely available from                            https://www.cp2k.org/
 CP2K| Program compiled at                          Sat Aug  5 09:59:49 UTC 2017
 CP2K| Program compiled on                                              lgw01-13
 CP2K| Program compiled for                                Linux-x86_64-gfortran
 CP2K| Data directory path                                       /usr/share/cp2k
 CP2K| Input file name                                                IR-DFTB.in

 GLOBAL| Force Environment number                                              1
 GLOBAL| Basis set file name                                           BASIS_SET
 GLOBAL| Potential file name                                           POTENTIAL
 GLOBAL| MM Potential file name                                     MM_POTENTIAL
 GLOBAL| Coordinate file name                                          ./mol.xyz
 GLOBAL| Method name                                                        CP2K
 GLOBAL| Project name                                                        MET
 GLOBAL| Preferred FFT library                                             FFTW3
 GLOBAL| Preferred diagonalization lib.                                       SL
 GLOBAL| Run type                                                             MD
 GLOBAL| All-to-all communication in single precision                          F
 GLOBAL| FFTs using library dependent lengths                                  T
 GLOBAL| Global print level                                                  LOW
 GLOBAL| Total number of message passing processes                             8
 GLOBAL| Number of threads for this process                                    1
 GLOBAL| This output is from process                                           0
 GLOBAL| CPU model name :  Intel(R) Xeon(R) CPU           X5690  @ 3.47GHz

 MEMORY| system memory details [Kb]
 MEMORY|                        rank 0           min           max       average
 MEMORY| MemTotal             16402728      16402728      16402728      16402728
 MEMORY| MemFree               9621552       9621552       9621552       9621552
 MEMORY| Buffers                203728        203728        203728        203728
 MEMORY| Cached                3647744       3647744       3647744       3647744
 MEMORY| Slab                   311208        311208        311208        311208
 MEMORY| SReclaimable           226504        226504        226504        226504
 MEMORY| MemLikelyFree        13699528      13699528      13699528      13699528


 GENERATE|  Preliminary Number of Bonds generated:                             0
 GENERATE|  Achieved consistency in connectivity generation.


              #####   #####        # ######  ####### ####### ######   
             #     # #     #      #  #     # #          #    #     #  
             #     # #           #   #     # #          #    #     #  
             #     #  #####     #    #     # #####      #    ######   
             #   # #       #   #     #     # #          #    #     #  
             #    #  #     #  #      #     # #          #    #     #  
              #### #  #####  #       ######  #          #    ######   
                                                                      
                                    Version 0.2                       
                               J. Hutter and T. Heine                 
                                                                      



 SCF PARAMETERS         Density guess:                                    ATOMIC
                        --------------------------------------------------------
                        max_scf:                                            2000
                        max_scf_history:                                       0
                        max_diis:                                              4
                        --------------------------------------------------------
                        eps_scf:                                        3.00E-07
                        eps_scf_history:                                0.00E+00
                        eps_diis:                                       1.00E-01
                        eps_eigval:                                     1.00E-05
                        --------------------------------------------------------
                        level_shift [a.u.]:                                 0.00
                        --------------------------------------------------------
                        No outer SCF

 MD| Molecular Dynamics Protocol 
 MD| Ensemble Type                                                           NVE
 MD| Number of Time Steps                                                    100
 MD| Time Step [fs]                                                         0.50
 MD| Temperature [K]                                                      300.00
 MD| Temperature tolerance [K]                                              0.00
 MD| Print MD information every                                        5 step(s)
 MD| File type     Print frequency[steps]                             File names
 MD| Coordinates            1                                      MET-pos-1.xyz
 MD| Velocities             1                                      MET-vel-1.xyz
 MD| Energies               5                                         MET-1.ener
 MD| Dump                  20                                      MET-1.restart

 ROT| Rotational Analysis Info 
 ROT| Principal axes and moments of inertia in atomic units:
 ROT|                                1                 2                 3
 ROT| EIGENVALUES            0.441182550E+04   0.778025710E+04   0.121920826E+05
 ROT|      X                     0.000000000       0.000000000       1.000000000
 ROT|      Y                    -1.000000000      -0.000000000       0.000000000
 ROT|      Z                    -0.000000000       1.000000000       0.000000000
 ROT| Numer of Rotovibrational vectors:     6

 Calculation of degrees of freedom
                                                      Number of atoms:         3
                                 Number of Intramolecular constraints:         0
                                 Number of Intermolecular constraints:         0
                                  Invariants(translation + rotations):         6
                                                   Degrees of freedom:         3


 Restraints Information
                                  Number of Intramolecular restraints:         0
                                  Number of Intermolecular restraints:         0
 ************************** Velocities initialization **************************
 Initial Temperature                                                    300.00 K
 COM velocity:           -0.000000000000      0.000000000000      0.000000000000
 COM position:            7.558904531543      7.558904531543      8.015772629785
 Angular velocity:        0.000025241068      0.000250005301     -0.000319645023
 *******************************************************************************


 Number of electrons:                                                          8
 Number of occupied orbitals:                                                  4
 Number of molecular orbitals:                                                 4

 Number of orbital functions:                                                  6
 Number of independent orbital functions:                                      6

 Extrapolation method: initial_guess


 SCF WAVEFUNCTION OPTIMIZATION

  ----------------------------------- OT ---------------------------------------
  Minimizer      : CG                  : conjugate gradient
  Preconditioner : FULL_SINGLE_INVERSE : inversion of 
                                         H + eS - 2*(Sc)(c^T*H*c+const)(Sc)^T
  Precond_solver : DEFAULT
  Line search    : 2PNT                : 2 energies, one gradient
  stepsize       :    0.08000000                  energy_gap     :    0.08000000
  eps_taylor     :   0.10000E-15                  max_taylor     :             4
  ----------------------------------- OT ---------------------------------------

  Step     Update method      Time    Convergence         Total energy    Change
  ------------------------------------------------------------------------------
     1 OT CG       0.80E-01    0.0     0.70507061        -2.5543388332 -2.55E+00
     2 OT LS       0.32E+00    0.0                       -3.5610768525
     3 OT CG       0.32E+00    0.0     0.33604076        -2.1827495231  3.72E-01
     4 OT LS       0.13E+01    0.0                       -3.8624646476
     5 OT CG       0.13E+01    0.0     0.25878336        -2.7974618822 -6.15E-01
     6 OT LS       0.71E+00    0.0                       -2.9934056220
     7 OT CG       0.71E+00    0.0     0.18664745        -1.7421725140  1.06E+00
     8 OT LS       0.28E+01    0.0                       -3.1802780190
     9 OT CG       0.28E+01    0.0     0.53163884        -3.3927863524 -1.65E+00
    10 OT LS       0.14E+01    0.0                       -2.5935421382
    11 OT CG       0.14E+01    0.0     0.51096753        -1.9575745894  1.44E+00
    12 OT LS       0.68E+00    0.0                       -2.0249026086
    13 OT CG       0.68E+00    0.0     0.52266867        -2.7546097118 -7.97E-01
    14 OT LS       0.26E+00    0.0                       -2.2466465682
    15 OT CG       0.26E+00    0.0     0.27583386        -2.3358467699  4.19E-01
    16 OT LS       0.11E+01    0.0                       -3.0203841551
    17 OT CG       0.11E+01    0.0     0.48630917        -1.2581341921  1.08E+00
    18 OT LS       0.52E+00    0.0                       -1.1922288684
    19 OT CG       0.52E+00    0.0     0.48879041        -2.9829943600 -1.72E+00
    20 OT LS       0.22E+00    0.0                       -2.4353756966
    21 OT CG       0.22E+00    0.0     0.78398714        -2.8184311494  1.65E-01
    22 OT LS       0.10E+00    0.0                       -2.5626242205
    23 OT CG       0.10E+00    0.0     0.29869777        -3.6017754624 -7.83E-01
    24 OT LS       0.31E+00    0.0                       -3.7154913022
    25 OT CG       0.31E+00    0.0     0.32150333        -3.7696439673 -1.68E-01
    26 OT LS       0.78E-01    0.0                       -3.0566923988
    27 OT CG       0.78E-01    0.0     0.15543427        -3.8476494734 -7.80E-02
    28 OT LS       0.31E+00    0.0                       -3.8816519783
    29 OT CG       0.31E+00    0.0     0.07249579        -3.9303330773 -8.27E-02
    30 OT LS       0.10E+00    0.0                       -3.9103284094
    31 OT CG       0.10E+00    0.0     0.06010341        -3.9369871251 -6.65E-03
    32 OT LS       0.40E+00    0.0                       -3.9448089420
    33 OT CG       0.40E+00    0.0     0.04766474        -3.9541217618 -1.71E-02
    34 OT LS       0.38E+00    0.0                       -3.9645103599
    35 OT CG       0.38E+00    0.0     0.07711085        -3.9644928719 -1.04E-02
    36 OT LS       0.11E+00    0.0                       -3.9220721050
    37 OT CG       0.11E+00    0.0     0.03436937        -3.9732961154 -8.80E-03
    38 OT LS       0.44E+00    0.0                       -3.9765298167
    39 OT CG       0.44E+00    0.0     0.03137957        -3.9848676732 -1.16E-02
    40 OT LS       0.14E+00    0.0                       -3.9784729782
    41 OT CG       0.14E+00    0.0     0.03604043        -3.9866539435 -1.79E-03
    42 OT LS       0.56E+00    0.0                       -3.9905906590
    43 OT CG       0.56E+00    0.0     0.03168662        -3.9975334912 -1.09E-02
    44 OT LS       0.15E+00    0.0                       -3.9857313472
    45 OT CG       0.15E+00    0.0     0.03908692        -3.9995381916 -2.00E-03
    46 OT LS       0.30E+00    0.0                       -4.0037456169
    47 OT CG       0.30E+00    0.0     0.03615436        -4.0052900261 -5.75E-03
    48 OT LS       0.25E+00    0.0                       -4.0091472982
    49 OT CG       0.25E+00    0.0     0.05992574        -4.0093447375 -4.05E-03
    50 OT LS       0.18E+00    0.0                       -4.0162335966
    51 OT CG       0.18E+00    0.0     0.03135551        -4.0174559665 -8.11E-03
    52 OT LS       0.20E+00    0.0                       -4.0197845757
    53 OT CG       0.20E+00    0.0     0.04561741        -4.0198005160 -2.34E-03
    54 OT LS       0.21E+00    0.0                       -4.0249975724
    55 OT CG       0.21E+00    0.0     0.02356681        -4.0250161808 -5.22E-03
    56 OT LS       0.83E+00    0.0                       -4.0275101392
    57 OT CG       0.83E+00    0.0     0.06220736        -4.0307768627 -5.76E-03
    58 OT LS       0.67E-01    0.0                       -3.6217615094
    59 OT CG       0.67E-01    0.0     0.02586173        -4.0350372564 -4.26E-03
    60 OT LS       0.11E+00    0.0                       -4.0357782922
    61 OT CG       0.11E+00    0.0     0.02253519        -4.0359003228 -8.63E-04
    62 OT LS       0.20E+00    0.0                       -4.0368654241
    63 OT CG       0.20E+00    0.0     0.01093146        -4.0371492835 -1.25E-03
    64 OT LS       0.81E+00    0.0                       -4.0377125347
    65 OT CG       0.81E+00    0.1     0.00854734        -4.0390688445 -1.92E-03
    66 OT LS       0.21E+01    0.0                       -4.0402573134
    67 OT CG       0.21E+01    0.0     0.02775919        -4.0409291015 -1.86E-03
    68 OT LS       0.15E+00    0.0                       -3.8179504318
    69 OT CG       0.15E+00    0.0     0.03257624        -4.0420672589 -1.14E-03
    70 OT LS       0.60E+00    0.0                       -4.0449341126
    71 OT CG       0.60E+00    0.0     0.03055044        -4.0487599329 -6.69E-03
    72 OT LS       0.58E+00    0.0                       -4.0552285900
    73 OT CG       0.58E+00    0.0     0.02690978        -4.0552152961 -6.46E-03
    74 OT LS       0.11E+00    0.0                       -4.0384933441
    75 OT CG       0.11E+00    0.0     0.02641497        -4.0562697314 -1.05E-03
    76 OT LS       0.34E+00    0.0                       -4.0578857099
    77 OT CG       0.34E+00    0.0     0.01031439        -4.0592012814 -2.93E-03
    78 OT LS       0.88E-01    0.0                       -4.0583772473
    79 OT CG       0.88E-01    0.0     0.00838613        -4.0593131631 -1.12E-04
    80 OT LS       0.35E+00    0.0                       -4.0594531399
    81 OT CG       0.35E+00    0.0     0.00637903        -4.0597775889 -4.64E-04
    82 OT LS       0.22E+00    0.0                       -4.0598534390
    83 OT CG       0.22E+00    0.0     0.01091351        -4.0598889602 -1.11E-04
    84 OT LS       0.41E+00    0.0                       -4.0603533918
    85 OT CG       0.41E+00    0.0     0.01151860        -4.0604652761 -5.76E-04
    86 OT LS       0.14E+01    0.0                       -4.0615502538
    87 OT CG       0.14E+01    0.0     0.03316376        -4.0627806562 -2.32E-03
    88 OT LS       0.74E-01    0.0                       -3.7218694992
    89 OT CG       0.74E-01    0.0     0.00813137        -4.0640784564 -1.30E-03
    90 OT LS       0.29E+00    0.0                       -4.0642126905
    91 OT CG       0.29E+00    0.0     0.00624005        -4.0645769660 -4.99E-04
    92 OT LS       0.11E+01    0.0                       -4.0648143642
    93 OT CG       0.11E+01    0.0     0.00941862        -4.0650859179 -5.09E-04
    94 OT LS       0.63E-01    0.0                       -4.0474325389
    95 OT CG       0.63E-01    0.0     0.00312661        -4.0651561264 -7.02E-05
    96 OT LS       0.25E+00    0.0                       -4.0651710207
    97 OT CG       0.25E+00    0.0     0.00291027        -4.0652135667 -5.74E-05
    98 OT LS       0.60E+00    0.0                       -4.0652540113
    99 OT CG       0.60E+00    0.0     0.00872563        -4.0652749738 -6.14E-05
   100 OT LS       0.33E+00    0.0                       -4.0653550906
   101 OT CG       0.33E+00    0.0     0.00464364        -4.0655772933 -3.02E-04
   102 OT LS       0.13E+01    0.0                       -4.0657390730
   103 OT CG       0.13E+01    0.0     0.00844230        -4.0661239830 -5.47E-04
   104 OT LS       0.14E+00    0.0                       -4.0543153394
   105 OT CG       0.14E+00    0.0     0.01082485        -4.0663059611 -1.82E-04
   106 OT LS       0.19E+00    0.0                       -4.0665537060
   107 OT CG       0.19E+00    0.0     0.02375475        -4.0665689744 -2.63E-04
   108 OT LS       0.95E-01    0.0                       -4.0666037273
   109 OT CG       0.95E-01    0.0     0.00311977        -4.0672112328 -6.42E-04
   110 OT LS       0.38E+00    0.0                       -4.0672328548
   111 OT CG       0.38E+00    0.0     0.00253934        -4.0672911072 -7.99E-05
   112 OT LS       0.53E+00    0.0                       -4.0673289205
   113 OT CG       0.53E+00    0.0     0.00526311        -4.0673322005 -4.11E-05
   114 OT LS       0.98E-01    0.0                       -4.0667255714
   115 OT CG       0.98E-01    0.0     0.00072977        -4.0673637396 -3.15E-05
   116 OT LS       0.39E+00    0.0                       -4.0673649192
   117 OT CG       0.39E+00    0.0     0.00067365        -4.0673681188 -4.38E-06
   118 OT LS       0.16E+01    0.0                       -4.0673720682
   119 OT CG       0.16E+01    0.0     0.00195056        -4.0673788199 -1.07E-05
   120 OT LS       0.11E+00    0.0                       -4.0662745587
   121 OT CG       0.11E+00    0.0     0.00124509        -4.0673848644 -6.04E-06
   122 OT LS       0.43E+00    0.0                       -4.0673885071
   123 OT CG       0.43E+00    0.0     0.00166645        -4.0673941922 -9.33E-06
   124 OT LS       0.11E+00    0.0                       -4.0673640504
   125 OT CG       0.11E+00    0.0     0.00167547        -4.0673978992 -3.71E-06
   126 OT LS       0.42E+00    0.0                       -4.0674046815
   127 OT CG       0.42E+00    0.0     0.00148162        -4.0674206086 -2.27E-05
   128 OT LS       0.64E-01    0.0                       -4.0673688797
   129 OT CG       0.64E-01    0.0     0.00072035        -4.0674222971 -1.69E-06
   130 OT LS       0.26E+00    0.0                       -4.0674230679
   131 OT CG       0.26E+00    0.0     0.00057308        -4.0674250515 -2.75E-06
   132 OT LS       0.28E+00    0.0                       -4.0674261633
   133 OT CG       0.28E+00    0.0     0.00116088        -4.0674261746 -1.12E-06
   134 OT LS       0.53E+00    0.0                       -4.0674329067
   135 OT CG       0.53E+00    0.0     0.00069270        -4.0674347118 -8.54E-06
   136 OT LS       0.84E+00    0.0                       -4.0674388846
   137 OT CG       0.84E+00    0.0     0.00089678        -4.0674395588 -4.85E-06
   138 OT LS       0.50E+00    0.0                       -4.0674420883
   139 OT CG       0.50E+00    0.0     0.00217690        -4.0674443722 -4.81E-06
   140 OT LS       0.17E+00    0.0                       -4.0674190487
   141 OT CG       0.17E+00    0.0     0.00080684        -4.0674541268 -9.75E-06
   142 OT LS       0.69E+00    0.0                       -4.0674567318
   143 OT CG       0.69E+00    0.0     0.00085729        -4.0674636024 -9.48E-06
   144 OT LS       0.21E+00    0.0                       -4.0674537749
   145 OT CG       0.21E+00    0.0     0.00147356        -4.0674659065 -2.30E-06
   146 OT LS       0.26E+00    0.0                       -4.0674724147
   147 OT CG       0.26E+00    0.0     0.00181939        -4.0674726545 -6.75E-06
   148 OT LS       0.60E-01    0.0                       -4.0674484996
   149 OT CG       0.60E-01    0.0     0.00066948        -4.0674750237 -2.37E-06
   150 OT LS       0.24E+00    0.0                       -4.0674756103
   151 OT CG       0.24E+00    0.0     0.00031760        -4.0674767089 -1.69E-06
   152 OT LS       0.21E+00    0.0                       -4.0674769541
   153 OT CG       0.21E+00    0.0     0.00051181        -4.0674769598 -2.51E-07
   154 OT LS       0.36E+00    0.0                       -4.0674778827
   155 OT CG       0.36E+00    0.0     0.00021271        -4.0674780754 -1.12E-06
   156 OT LS       0.14E+01    0.0                       -4.0674784212
   157 OT CG       0.14E+01    0.0     0.00035592        -4.0674789853 -9.10E-07
   158 OT LS       0.10E+01    0.0                       -4.0674805629
   159 OT CG       0.10E+01    0.0     0.00087163        -4.0674808192 -1.83E-06
   160 OT LS       0.80E-01    0.0                       -4.0673785611
   161 OT CG       0.80E-01    0.0     0.00039097        -4.0674815442 -7.25E-07
   162 OT LS       0.32E+00    0.0                       -4.0674818182
   163 OT CG       0.32E+00    0.0     0.00037023        -4.0674824138 -8.70E-07
   164 OT LS       0.12E+00    0.0                       -4.0674819038
   165 OT CG       0.12E+00    0.0     0.00038682        -4.0674826444 -2.31E-07
   166 OT LS       0.46E+00    0.0                       -4.0674830152
   167 OT CG       0.46E+00    0.0     0.00073738        -4.0674836149 -9.71E-07
   168 OT LS       0.77E-01    0.0                       -4.0674705587
   169 OT CG       0.77E-01    0.0     0.00036049        -4.0674841668 -5.52E-07
   170 OT LS       0.31E+00    0.0                       -4.0674843830
   171 OT CG       0.31E+00    0.0     0.00026053        -4.0674847400 -5.73E-07
   172 OT LS       0.74E-01    0.0                       -4.0674841658
   173 OT CG       0.74E-01    0.0     0.00016428        -4.0674848024 -6.24E-08
   174 OT LS       0.29E+00    0.0                       -4.0674848483
   175 OT CG       0.29E+00    0.0     0.00013832        -4.0674849655 -1.63E-07
   176 OT LS       0.10E+00    0.0                       -4.0674849073
   177 OT CG       0.10E+00    0.0     0.00013669        -4.0674849891 -2.36E-08
   178 OT LS       0.41E+00    0.0                       -4.0674850338
   179 OT CG       0.41E+00    0.0     0.00010878        -4.0674851496 -1.60E-07
   180 OT LS       0.12E+00    0.0                       -4.0674850651
   181 OT CG       0.12E+00    0.0     0.00012486        -4.0674851666 -1.70E-08
   182 OT LS       0.48E+00    0.0                       -4.0674852107
   183 OT CG       0.48E+00    0.0     0.00011984        -4.0674853356 -1.69E-07
   184 OT LS       0.11E+00    0.0                       -4.0674851256
   185 OT CG       0.11E+00    0.0     0.00012136        -4.0674853546 -1.90E-08
   186 OT LS       0.43E+00    0.0                       -4.0674853904
   187 OT CG       0.43E+00    0.0     0.00012695        -4.0674854727 -1.18E-07
   188 OT LS       0.19E+00    0.0                       -4.0674854507
   189 OT CG       0.19E+00    0.0     0.00020724        -4.0674855176 -4.49E-08
   190 OT LS       0.30E+00    0.0                       -4.0674856532
   191 OT CG       0.30E+00    0.0     0.00030573        -4.0674856739 -1.56E-07
   192 OT LS       0.90E-01    0.0                       -4.0674852019
   193 OT CG       0.90E-01    0.0     0.00026007        -4.0674857743 -1.00E-07
   194 OT LS       0.36E+00    0.0                       -4.0674859098
   195 OT CG       0.36E+00    0.0     0.00020113        -4.0674861969 -4.23E-07
   196 OT LS       0.65E-01    0.0                       -4.0674855216
   197 OT CG       0.65E-01    0.0     0.00008664        -4.0674862321 -3.52E-08
   198 OT LS       0.26E+00    0.0                       -4.0674862437
   199 OT CG       0.26E+00    0.0     0.00010227        -4.0674862765 -4.45E-08
   200 OT LS       0.11E+00    0.0                       -4.0674862588
   201 OT CG       0.11E+00    0.0     0.00010405        -4.0674862923 -1.58E-08
   202 OT LS       0.42E+00    0.0                       -4.0674863192
   203 OT CG       0.42E+00    0.0     0.00021129        -4.0674863916 -9.93E-08
   204 OT LS       0.11E+00    0.0                       -4.0674858269
   205 OT CG       0.11E+00    0.0     0.00018516        -4.0674864790 -8.74E-08
   206 OT LS       0.29E+00    0.0                       -4.0674865543
   207 OT CG       0.29E+00    0.0     0.00059081        -4.0674865989 -1.20E-07
   208 OT LS       0.42E+00    0.0                       -4.0674881981
   209 OT CG       0.42E+00    0.0     0.00011650        -4.0674883716 -1.77E-06
   210 OT LS       0.31E+00    0.0                       -4.0674884167
   211 OT CG       0.31E+00    0.0     0.00004860        -4.0674884230 -5.14E-08
   212 OT LS       0.22E+00    0.0                       -4.0674884281
   213 OT CG       0.22E+00    0.0     0.00008238        -4.0674884292 -6.25E-09
   214 OT LS       0.43E+00    0.0                       -4.0674884560
   215 OT CG       0.43E+00    0.0     0.00001854        -4.0674884645 -3.53E-08
   216 OT LS       0.17E+01    0.0                       -4.0674884678
   217 OT CG       0.17E+01    0.0     0.00004632        -4.0674884743 -9.79E-09
   218 OT LS       0.13E+00    0.0                       -4.0674878079
   219 OT CG       0.13E+00    0.0     0.00005049        -4.0674884789 -4.60E-09
   220 OT LS       0.30E+00    0.0                       -4.0674884852
   221 OT CG       0.30E+00    0.0     0.00010516        -4.0674884880 -9.04E-09
   222 OT LS       0.72E-01    0.0                       -4.0674884052
   223 OT CG       0.72E-01    0.0     0.00003157        -4.0674884975 -9.54E-09
   224 OT LS       0.29E+00    0.0                       -4.0674884992
   225 OT CG       0.29E+00    0.0     0.00002927        -4.0674885039 -6.40E-09
   226 OT LS       0.28E+00    0.0                       -4.0674885067
   227 OT CG       0.28E+00    0.0     0.00005676        -4.0674885067 -2.83E-09
   228 OT LS       0.37E+00    0.0                       -4.0674885202
   229 OT CG       0.37E+00    0.0     0.00002119        -4.0674885212 -1.44E-08
   230 OT LS       0.43E+00    0.0                       -4.0674885234
   231 OT CG       0.43E+00    0.0     0.00001455        -4.0674885235 -2.30E-09
   232 OT LS       0.17E+01    0.0                       -4.0674885255
   233 OT CG       0.17E+01    0.0     0.00001338        -4.0674885308 -7.34E-09
   234 OT LS       0.23E+00    0.0                       -4.0674885085
   235 OT CG       0.23E+00    0.0     0.00002398        -4.0674885314 -5.56E-10
   236 OT LS       0.37E+00    0.0                       -4.0674885335
   237 OT CG       0.37E+00    0.0     0.00003030        -4.0674885339 -2.53E-09
   238 OT LS       0.17E+00    0.0                       -4.0674885331
   239 OT CG       0.17E+00    0.0     0.00004275        -4.0674885357 -1.84E-09
   240 OT LS       0.29E+00    0.0                       -4.0674885409
   241 OT CG       0.29E+00    0.0     0.00002284        -4.0674885420 -6.31E-09
   242 OT LS       0.24E+00    0.0                       -4.0674885435
   243 OT CG       0.24E+00    0.0     0.00004033        -4.0674885436 -1.53E-09
   244 OT LS       0.23E+00    0.0                       -4.0674885480
   245 OT CG       0.23E+00    0.0     0.00002414        -4.0674885480 -4.44E-09
   246 OT LS       0.51E+00    0.0                       -4.0674885505
   247 OT CG       0.51E+00    0.0     0.00006102        -4.0674885516 -3.56E-09
   248 OT LS       0.16E+00    0.0                       -4.0674885229
   249 OT CG       0.16E+00    0.0     0.00002869        -4.0674885585 -6.98E-09
   250 OT LS       0.45E+00    0.0                       -4.0674885611
   251 OT CG       0.45E+00    0.0     0.00005336        -4.0674885630 -4.46E-09
   252 OT LS       0.87E-01    0.0                       -4.0674885133
   253 OT CG       0.87E-01    0.0     0.00001647        -4.0674885659 -2.96E-09
   254 OT LS       0.35E+00    0.0                       -4.0674885665
   255 OT CG       0.35E+00    0.0     0.00002047        -4.0674885673 -1.39E-09
   256 OT LS       0.84E-01    0.0                       -4.0674885629
   257 OT CG       0.84E-01    0.0     0.00000819        -4.0674885678 -5.04E-10
   258 OT LS       0.33E+00    0.0                       -4.0674885680
   259 OT CG       0.33E+00    0.0     0.00001197        -4.0674885682 -3.93E-10
   260 OT LS       0.11E+00    0.0                       -4.0674885675
   261 OT CG       0.11E+00    0.0     0.00001127        -4.0674885685 -2.20E-10
   262 OT LS       0.26E+00    0.0                       -4.0674885687
   263 OT CG       0.26E+00    0.0     0.00001112        -4.0674885688 -3.94E-10
   264 OT LS       0.67E-01    0.0                       -4.0674885681
   265 OT CG       0.67E-01    0.0     0.00000608        -4.0674885689 -9.93E-11
   266 OT LS       0.27E+00    0.0                       -4.0674885690
   267 OT CG       0.27E+00    0.0     0.00000380        -4.0674885691 -1.66E-10
   268 OT LS       0.99E-01    0.0                       -4.0674885691
   269 OT CG       0.99E-01    0.0     0.00000366        -4.0674885691 -1.72E-11
   270 OT LS       0.40E+00    0.0                       -4.0674885692
   271 OT CG       0.40E+00    0.0     0.00000335        -4.0674885693 -1.21E-10
   272 OT LS       0.11E+00    0.0                       -4.0674885692
   273 OT CG       0.11E+00    0.0     0.00000356        -4.0674885693 -1.47E-11
   274 OT LS       0.44E+00    0.0                       -4.0674885693
   275 OT CG       0.44E+00    0.0     0.00000344        -4.0674885694 -1.30E-10
   276 OT LS       0.99E-01    0.0                       -4.0674885692
   277 OT CG       0.99E-01    0.0     0.00000331        -4.0674885694 -1.41E-11
   278 OT LS       0.40E+00    0.0                       -4.0674885694
   279 OT CG       0.40E+00    0.0     0.00000320        -4.0674885695 -9.98E-11
   280 OT LS       0.12E+00    0.0                       -4.0674885695
   281 OT CG       0.12E+00    0.0     0.00000371        -4.0674885695 -1.54E-11
   282 OT LS       0.49E+00    0.0                       -4.0674885696
   283 OT CG       0.49E+00    0.0     0.00000404        -4.0674885697 -1.35E-10
   284 OT LS       0.16E+00    0.0                       -4.0674885695
   285 OT CG       0.16E+00    0.0     0.00000565        -4.0674885697 -3.75E-11
   286 OT LS       0.30E+00    0.0                       -4.0674885698
   287 OT CG       0.30E+00    0.0     0.00000843        -4.0674885698 -1.15E-10
   288 OT LS       0.87E-01    0.0                       -4.0674885694
   289 OT CG       0.87E-01    0.0     0.00000694        -4.0674885699 -7.46E-11
   290 OT LS       0.35E+00    0.0                       -4.0674885700
   291 OT CG       0.35E+00    0.0     0.00000567        -4.0674885702 -3.10E-10
   292 OT LS       0.66E-01    0.0                       -4.0674885697
   293 OT CG       0.66E-01    0.0     0.00000252        -4.0674885702 -2.81E-11
   294 OT LS       0.26E+00    0.0                       -4.0674885702
   295 OT CG       0.26E+00    0.0     0.00000304        -4.0674885703 -3.94E-11
   296 OT LS       0.11E+00    0.0                       -4.0674885703
   297 OT CG       0.11E+00    0.0     0.00000332        -4.0674885703 -1.49E-11
   298 OT LS       0.45E+00    0.0                       -4.0674885703
   299 OT CG       0.45E+00    0.0     0.00000717        -4.0674885704 -1.06E-10
   300 OT LS       0.12E+00    0.0                       -4.0674885697
   301 OT CG       0.12E+00    0.0     0.00000647        -4.0674885705 -1.06E-10
   302 OT LS       0.28E+00    0.0                       -4.0674885706
   303 OT CG       0.28E+00    0.0     0.00002032        -4.0674885706 -1.39E-10
   304 OT LS       0.42E+00    0.0                       -4.0674885725
   305 OT CG       0.42E+00    0.0     0.00000150        -4.0674885727 -2.06E-09
   306 OT LS       0.58E+00    0.0                       -4.0674885727
   307 OT CG       0.58E+00    0.0     0.00000143        -4.0674885727 -1.56E-11
   308 OT LS       0.60E+00    0.0                       -4.0674885727
   309 OT CG       0.60E+00    0.0     0.00000305        -4.0674885727 -1.46E-11
   310 OT LS       0.91E-01    0.0                       -4.0674885724
   311 OT CG       0.91E-01    0.0     0.00000040        -4.0674885727 -1.02E-11
   312 OT LS       0.37E+00    0.0                       -4.0674885727
   313 OT CG       0.37E+00    0.0     0.00000038        -4.0674885727 -1.39E-12
   314 OT LS       0.15E+01    0.0                       -4.0674885727
   315 OT CG       0.15E+01    0.0     0.00000101        -4.0674885727 -3.72E-12
   316 OT LS       0.13E+00    0.0                       -4.0674885725
   317 OT CG       0.13E+00    0.0     0.00000092        -4.0674885727 -2.24E-12
   318 OT LS       0.22E+00    0.0                       -4.0674885727
   319 OT CG       0.22E+00    0.0     0.00000199        -4.0674885727 -2.26E-12
   320 OT LS       0.82E-01    0.0                       -4.0674885727
   321 OT CG       0.82E-01    0.0     0.00000067        -4.0674885727 -3.87E-12
   322 OT LS       0.33E+00    0.0                       -4.0674885727
   323 OT CG       0.33E+00    0.0     0.00000063        -4.0674885727 -3.42E-12
   324 OT LS       0.71E+00    0.0                       -4.0674885728
   325 OT CG       0.71E+00    0.0     0.00000173        -4.0674885728 -3.40E-12
   326 OT LS       0.13E+00    0.0                       -4.0674885727
   327 OT CG       0.13E+00    0.0     0.00000030        -4.0674885728 -4.52E-12

  *** SCF run converged in   327 steps ***


  Core Hamiltonian energy:                                     -4.15420253626284
  Repulsive potential energy:                                   0.06178646398788
  Electronic energy:                                            0.02138597612402
  Dispersion energy:                                            0.00354152339313

  Total energy:                                                -4.06748857275782

 ENERGY| Total FORCE_EVAL ( QS ) energy (a.u.):               -4.067488572758069


 MD_ENERGIES| Initialization proceeding


 ******************************** GO CP2K GO! **********************************
 INITIAL POTENTIAL ENERGY[hartree]     =                     -0.406748857276E+01
 INITIAL KINETIC ENERGY[hartree]       =                      0.142506690448E-02
 INITIAL TEMPERATURE[K]                =                                 300.000
 INITIAL VOLUME[bohr^3]                =                      0.674833458309E+04
 INITIAL CELL LNTHS[bohr]   =      0.1889726E+02   0.1889726E+02   0.1889726E+02
 INITIAL CELL ANGLS[deg]    =      0.9000000E+02   0.9000000E+02   0.9000000E+02
 ******************************** GO CP2K GO! **********************************

 Number of electrons:                                                          8
 Number of occupied orbitals:                                                  4
 Number of molecular orbitals:                                                 4

 Number of orbital functions:                                                  6
 Number of independent orbital functions:                                      6

 Extrapolation method: ASPC


 SCF WAVEFUNCTION OPTIMIZATION

  ----------------------------------- OT ---------------------------------------
  Minimizer      : CG                  : conjugate gradient
  Preconditioner : FULL_SINGLE_INVERSE : inversion of 
                                         H + eS - 2*(Sc)(c^T*H*c+const)(Sc)^T
  Precond_solver : DEFAULT
  Line search    : 2PNT                : 2 energies, one gradient
  stepsize       :    0.08000000                  energy_gap     :    0.08000000
  eps_taylor     :   0.10000E-15                  max_taylor     :             4
  ----------------------------------- OT ---------------------------------------

  Step     Update method      Time    Convergence         Total energy    Change
  ------------------------------------------------------------------------------
     1 OT CG       0.80E-01    0.0     0.00270263        -4.0670703487 -4.07E+00
     2 OT LS       0.31E+00    0.0                       -4.0670825407
     3 OT CG       0.31E+00    0.0     0.00058657        -4.0670971789 -2.68E-05
     4 OT LS       0.23E+00    0.0                       -4.0670980194
     5 OT CG       0.23E+00    0.0     0.00015184        -4.0670981255 -9.47E-07
     6 OT LS       0.24E+00    0.0                       -4.0670981914
     7 OT CG       0.24E+00    0.0     0.00002089        -4.0670981915 -6.60E-08
     8 OT LS       0.30E+00    0.0                       -4.0670981930
     9 OT CG       0.30E+00    0.0     0.00000171        -4.0670981931 -1.59E-09
    10 OT LS       0.24E+00    0.0                       -4.0670981931
    11 OT CG       0.24E+00    0.0     0.00000044        -4.0670981931 -8.30E-12
    12 OT LS       0.21E+00    0.0                       -4.0670981931
    13 OT CG       0.21E+00    0.0     0.00000009        -4.0670981931 -4.92E-13

  *** SCF run converged in    13 steps ***


  Core Hamiltonian energy:                                     -4.15153852757784
  Repulsive potential energy:                                   0.05948147732855
  Electronic energy:                                            0.02141860327435
  Dispersion energy:                                            0.00354025388648

  Total energy:                                                -4.06709819308845

 ENERGY| Total FORCE_EVAL ( QS ) energy (a.u.):               -4.067098193088476


 Number of electrons:                                                          8
 Number of occupied orbitals:                                                  4
 Number of molecular orbitals:                                                 4

 Number of orbital functions:                                                  6
 Number of independent orbital functions:                                      6

 Extrapolation method: ASPC


 SCF WAVEFUNCTION OPTIMIZATION

  ----------------------------------- OT ---------------------------------------
  Minimizer      : CG                  : conjugate gradient
  Preconditioner : FULL_SINGLE_INVERSE : inversion of 
                                         H + eS - 2*(Sc)(c^T*H*c+const)(Sc)^T
  Precond_solver : DEFAULT
  Line search    : 2PNT                : 2 energies, one gradient
  stepsize       :    0.08000000                  energy_gap     :    0.08000000
  eps_taylor     :   0.10000E-15                  max_taylor     :             4
  ----------------------------------- OT ---------------------------------------

  Step     Update method      Time    Convergence         Total energy    Change
  ------------------------------------------------------------------------------
     1 OT CG       0.80E-01    0.0     0.00074031        -4.0668187566 -4.07E+00
     2 OT LS       0.29E+00    0.0                       -4.0668196615
     3 OT CG       0.29E+00    0.0     0.00009956        -4.0668206347 -1.88E-06
     4 OT LS       0.25E+00    0.0                       -4.0668206639
     5 OT CG       0.25E+00    0.0     0.00001806        -4.0668206644 -2.98E-08
     6 OT LS       0.19E+00    0.0                       -4.0668206651
     7 OT CG       0.19E+00    0.0     0.00000069        -4.0668206652 -7.28E-10
     8 OT LS       0.27E+00    0.0                       -4.0668206652
     9 OT CG       0.27E+00    0.0     0.00000019        -4.0668206652 -1.51E-12

  *** SCF run converged in     9 steps ***


  Core Hamiltonian energy:                                     -4.15035693223869
  Repulsive potential energy:                                   0.05856742705306
  Electronic energy:                                            0.02142840631605
  Dispersion energy:                                            0.00354043369108

  Total energy:                                                -4.06682066517850

 ENERGY| Total FORCE_EVAL ( QS ) energy (a.u.):               -4.066820665178580


 Number of electrons:                                                          8
 Number of occupied orbitals:                                                  4
 Number of molecular orbitals:                                                 4

 Number of orbital functions:                                                  6
 Number of independent orbital functions:                                      6

 Extrapolation method: ASPC


 SCF WAVEFUNCTION OPTIMIZATION

  ----------------------------------- OT ---------------------------------------
  Minimizer      : CG                  : conjugate gradient
  Preconditioner : FULL_SINGLE_INVERSE : inversion of 
                                         H + eS - 2*(Sc)(c^T*H*c+const)(Sc)^T
  Precond_solver : DEFAULT
  Line search    : 2PNT                : 2 energies, one gradient
  stepsize       :    0.08000000                  energy_gap     :    0.08000000
  eps_taylor     :   0.10000E-15                  max_taylor     :             4
  ----------------------------------- OT ---------------------------------------

  Step     Update method      Time    Convergence         Total energy    Change
  ------------------------------------------------------------------------------
     1 OT CG       0.80E-01    0.0     0.00045847        -4.0667402254 -4.07E+00
     2 OT LS       0.28E+00    0.0                       -4.0667405709
     3 OT CG       0.28E+00    0.0     0.00007272        -4.0667409268 -7.01E-07
     4 OT LS       0.22E+00    0.0                       -4.0667409402
     5 OT CG       0.22E+00    0.0     0.00001677        -4.0667409410 -1.42E-08
     6 OT LS       0.22E+00    0.0                       -4.0667409417
     7 OT CG       0.22E+00    0.0     0.00000077        -4.0667409417 -7.26E-10
     8 OT LS       0.24E+00    0.0                       -4.0667409417
     9 OT CG       0.24E+00    0.0     0.00000020        -4.0667409417 -1.72E-12

  *** SCF run converged in     9 steps ***


  Core Hamiltonian energy:                                     -4.15074441808256
  Repulsive potential energy:                                   0.05904393664756
  Electronic energy:                                            0.02141738229784
  Dispersion energy:                                            0.00354215741970

  Total energy:                                                -4.06674094171746

 ENERGY| Total FORCE_EVAL ( QS ) energy (a.u.):               -4.066740941717553


 Number of electrons:                                                          8
 Number of occupied orbitals:                                                  4
 Number of molecular orbitals:                                                 4

 Number of orbital functions:                                                  6
 Number of independent orbital functions:                                      6

 Extrapolation method: ASPC


 SCF WAVEFUNCTION OPTIMIZATION

  ----------------------------------- OT ---------------------------------------
  Minimizer      : CG                  : conjugate gradient
  Preconditioner : FULL_SINGLE_INVERSE : inversion of 
                                         H + eS - 2*(Sc)(c^T*H*c+const)(Sc)^T
  Precond_solver : DEFAULT
  Line search    : 2PNT                : 2 energies, one gradient
  stepsize       :    0.08000000                  energy_gap     :    0.08000000
  eps_taylor     :   0.10000E-15                  max_taylor     :             4
  ----------------------------------- OT ---------------------------------------

  Step     Update method      Time    Convergence         Total energy    Change
  ------------------------------------------------------------------------------
     1 OT CG       0.80E-01    0.0     0.00033486        -4.0668717223 -4.07E+00
     2 OT LS       0.27E+00    0.0                       -4.0668719060
     3 OT CG       0.27E+00    0.0     0.00005766        -4.0668720900 -3.68E-07
     4 OT LS       0.22E+00    0.0                       -4.0668720979
     5 OT CG       0.22E+00    0.0     0.00001287        -4.0668720986 -8.60E-09
     6 OT LS       0.23E+00    0.0                       -4.0668720990
     7 OT CG       0.23E+00    0.0     0.00000064        -4.0668720990 -4.60E-10
     8 OT LS       0.25E+00    0.0                       -4.0668720990
     9 OT CG       0.25E+00    0.0     0.00000017        -4.0668720990 -1.23E-12

  *** SCF run converged in     9 steps ***


  Core Hamiltonian energy:                                     -4.15264602744897
  Repulsive potential energy:                                   0.06084141063543
  Electronic energy:                                            0.02138722604050
  Dispersion energy:                                            0.00354529174930

  Total energy:                                                -4.06687209902375

 ENERGY| Total FORCE_EVAL ( QS ) energy (a.u.):               -4.066872099023824


 Number of electrons:                                                          8
 Number of occupied orbitals:                                                  4
 Number of molecular orbitals:                                                 4

 Number of orbital functions:                                                  6
 Number of independent orbital functions:                                      6

 Extrapolation method: ASPC


 SCF WAVEFUNCTION OPTIMIZATION

  ----------------------------------- OT ---------------------------------------
  Minimizer      : CG                  : conjugate gradient
  Preconditioner : FULL_SINGLE_INVERSE : inversion of 
                                         H + eS - 2*(Sc)(c^T*H*c+const)(Sc)^T
  Precond_solver : DEFAULT
  Line search    : 2PNT                : 2 energies, one gradient
  stepsize       :    0.08000000                  energy_gap     :    0.08000000
  eps_taylor     :   0.10000E-15                  max_taylor     :             4
  ----------------------------------- OT ---------------------------------------

  Step     Update method      Time    Convergence         Total energy    Change
  ------------------------------------------------------------------------------
     1 OT CG       0.80E-01    0.0     0.00026002        -4.0671544725 -4.07E+00
     2 OT LS       0.27E+00    0.0                       -4.0671545829
     3 OT CG       0.27E+00    0.0     0.00004752        -4.0671546897 -2.17E-07
     4 OT LS       0.21E+00    0.0                       -4.0671546950
     5 OT CG       0.21E+00    0.0     0.00000989        -4.0671546954 -5.71E-09
     6 OT LS       0.25E+00    0.0                       -4.0671546957
     7 OT CG       0.25E+00    0.0     0.00000051        -4.0671546957 -2.91E-10
     8 OT LS       0.25E+00    0.0                       -4.0671546957
     9 OT CG       0.25E+00    0.0     0.00000013        -4.0671546957 -7.86E-13

  *** SCF run converged in     9 steps ***


  Core Hamiltonian energy:                                     -4.15587172894204
  Repulsive potential energy:                                   0.06382887132273
  Electronic energy:                                            0.02133866469414
  Dispersion energy:                                            0.00354949723438

  Total energy:                                                -4.06715469569078

 ENERGY| Total FORCE_EVAL ( QS ) energy (a.u.):               -4.067154695690831


 *******************************************************************************
 ENSEMBLE TYPE                =                                              NVE
 STEP NUMBER                  =                                                5
 TIME [fs]                    =                                         2.500000
 CONSERVED QUANTITY [hartree] =                              -0.406605970208E+01

                                              INSTANTANEOUS             AVERAGES
 CPU TIME [s]                 =                        0.29                 1.57
 ENERGY DRIFT PER ATOM [K]    =          0.400378048578E+00   0.914797498519E+00
 POTENTIAL ENERGY[hartree]    =         -0.406715469569E+01  -0.406693731894E+01
 KINETIC ENERGY [hartree]     =          0.109499360728E-02   0.884216206106E-03
 TEMPERATURE [K]              =                     230.514              186.142
 *******************************************************************************


 Number of electrons:                                                          8
 Number of occupied orbitals:                                                  4
 Number of molecular orbitals:                                                 4

 Number of orbital functions:                                                  6
 Number of independent orbital functions:                                      6

 Extrapolation method: ASPC


 SCF WAVEFUNCTION OPTIMIZATION

  ----------------------------------- OT ---------------------------------------
  Minimizer      : CG                  : conjugate gradient
  Preconditioner : FULL_SINGLE_INVERSE : inversion of 
                                         H + eS - 2*(Sc)(c^T*H*c+const)(Sc)^T
  Precond_solver : DEFAULT
  Line search    : 2PNT                : 2 energies, one gradient
  stepsize       :    0.08000000                  energy_gap     :    0.08000000
  eps_taylor     :   0.10000E-15                  max_taylor     :             4
  ----------------------------------- OT ---------------------------------------

  Step     Update method      Time    Convergence         Total energy    Change
  ------------------------------------------------------------------------------
     1 OT CG       0.80E-01    0.0     0.00020692        -4.0674772824 -4.07E+00
     2 OT LS       0.26E+00    0.0                       -4.0674773520
     3 OT CG       0.26E+00    0.0     0.00003945        -4.0674774159 -1.33E-07
     4 OT LS       0.21E+00    0.0                       -4.0674774195
     5 OT CG       0.21E+00    0.0     0.00000732        -4.0674774198 -3.89E-09
     6 OT LS       0.27E+00    0.0                       -4.0674774199
     7 OT CG       0.27E+00    0.0     0.00000037        -4.0674774199 -1.72E-10
     8 OT LS       0.28E+00    0.0                       -4.0674774199
     9 OT CG       0.28E+00    0.0     0.00000010        -4.0674774199 -4.54E-13

  *** SCF run converged in     9 steps ***


  Core Hamiltonian energy:                                     -4.16010371011607
  Repulsive potential energy:                                   0.06779956962527
  Electronic energy:                                            0.02127244496340
  Dispersion energy:                                            0.00355427560253

  Total energy:                                                -4.06747741992486

 ENERGY| Total FORCE_EVAL ( QS ) energy (a.u.):               -4.067477419924884


 Number of electrons:                                                          8
 Number of occupied orbitals:                                                  4
 Number of molecular orbitals:                                                 4

 Number of orbital functions:                                                  6
 Number of independent orbital functions:                                      6

 Extrapolation method: ASPC


 SCF WAVEFUNCTION OPTIMIZATION

  ----------------------------------- OT ---------------------------------------
  Minimizer      : CG                  : conjugate gradient
  Preconditioner : FULL_SINGLE_INVERSE : inversion of 
                                         H + eS - 2*(Sc)(c^T*H*c+const)(Sc)^T
  Precond_solver : DEFAULT
  Line search    : 2PNT                : 2 energies, one gradient
  stepsize       :    0.08000000                  energy_gap     :    0.08000000
  eps_taylor     :   0.10000E-15                  max_taylor     :             4
  ----------------------------------- OT ---------------------------------------

  Step     Update method      Time    Convergence         Total energy    Change
  ------------------------------------------------------------------------------
     1 OT CG       0.80E-01    0.0     0.00014148        -4.0677133293 -4.07E+00
     2 OT LS       0.25E+00    0.0                       -4.0677133615
     3 OT CG       0.25E+00    0.0     0.00002672        -4.0677133888 -5.96E-08
     4 OT LS       0.21E+00    0.0                       -4.0677133905
     5 OT CG       0.21E+00    0.0     0.00000389        -4.0677133906 -1.76E-09
     6 OT LS       0.30E+00    0.0                       -4.0677133906
     7 OT CG       0.30E+00    0.0     0.00000022        -4.0677133906 -5.42E-11

  *** SCF run converged in     7 steps ***


  Core Hamiltonian energy:                                     -4.16490756464578
  Repulsive potential energy:                                   0.07244405493354
  Electronic energy:                                            0.02119108618419
  Dispersion energy:                                            0.00355903288947

  Total energy:                                                -4.06771339063859

 ENERGY| Total FORCE_EVAL ( QS ) energy (a.u.):               -4.067713390638778


 Number of electrons:                                                          8
 Number of occupied orbitals:                                                  4
 Number of molecular orbitals:                                                 4

 Number of orbital functions:                                                  6
 Number of independent orbital functions:                                      6

 Extrapolation method: ASPC


 SCF WAVEFUNCTION OPTIMIZATION

  ----------------------------------- OT ---------------------------------------
  Minimizer      : CG                  : conjugate gradient
  Preconditioner : FULL_SINGLE_INVERSE : inversion of 
                                         H + eS - 2*(Sc)(c^T*H*c+const)(Sc)^T
  Precond_solver : DEFAULT
  Line search    : 2PNT                : 2 energies, one gradient
  stepsize       :    0.08000000                  energy_gap     :    0.08000000
  eps_taylor     :   0.10000E-15                  max_taylor     :             4
  ----------------------------------- OT ---------------------------------------

  Step     Update method      Time    Convergence         Total energy    Change
  ------------------------------------------------------------------------------
     1 OT CG       0.80E-01    0.0     0.00008657        -4.0677680627 -4.07E+00
     2 OT LS       0.24E+00    0.0                       -4.0677680747
     3 OT CG       0.24E+00    0.0     0.00001573        -4.0677680847 -2.20E-08
     4 OT LS       0.21E+00    0.0                       -4.0677680853
     5 OT CG       0.21E+00    0.0     0.00000216        -4.0677680853 -6.09E-10
     6 OT LS       0.31E+00    0.0                       -4.0677680853
     7 OT CG       0.31E+00    0.0     0.00000026        -4.0677680853 -1.73E-11

  *** SCF run converged in     7 steps ***


  Core Hamiltonian energy:                                     -4.16975149500812
  Repulsive potential energy:                                   0.07731932049619
  Electronic energy:                                            0.02110094505214
  Dispersion energy:                                            0.00356314412508

  Total energy:                                                -4.06776808533471

 ENERGY| Total FORCE_EVAL ( QS ) energy (a.u.):               -4.067768085334886


 Number of electrons:                                                          8
 Number of occupied orbitals:                                                  4
 Number of molecular orbitals:                                                 4

 Number of orbital functions:                                                  6
 Number of independent orbital functions:                                      6

 Extrapolation method: ASPC


 SCF WAVEFUNCTION OPTIMIZATION

  ----------------------------------- OT ---------------------------------------
  Minimizer      : CG                  : conjugate gradient
  Preconditioner : FULL_SINGLE_INVERSE : inversion of 
                                         H + eS - 2*(Sc)(c^T*H*c+const)(Sc)^T
  Precond_solver : DEFAULT
  Line search    : 2PNT                : 2 energies, one gradient
  stepsize       :    0.08000000                  energy_gap     :    0.08000000
  eps_taylor     :   0.10000E-15                  max_taylor     :             4
  ----------------------------------- OT ---------------------------------------

  Step     Update method      Time    Convergence         Total energy    Change
  ------------------------------------------------------------------------------
     1 OT CG       0.80E-01    0.0     0.00011441        -4.0676294777 -4.07E+00
     2 OT LS       0.28E+00    0.0                       -4.0676294993
     3 OT CG       0.28E+00    0.0     0.00001678        -4.0676295224 -4.47E-08
     4 OT LS       0.23E+00    0.0                       -4.0676295231
     5 OT CG       0.23E+00    0.0     0.00000388        -4.0676295231 -7.69E-10
     6 OT LS       0.22E+00    0.0                       -4.0676295232
     7 OT CG       0.22E+00    0.0     0.00000014        -4.0676295232 -4.02E-11

  *** SCF run converged in     7 steps ***


  Core Hamiltonian energy:                                     -4.17404826067876
  Repulsive potential energy:                                   0.08183975322974
  Electronic energy:                                            0.02101296639732
  Dispersion energy:                                            0.00356601788326

  Total energy:                                                -4.06762952316844

 ENERGY| Total FORCE_EVAL ( QS ) energy (a.u.):               -4.067629523168514


 Number of electrons:                                                          8
 Number of occupied orbitals:                                                  4
 Number of molecular orbitals:                                                 4

 Number of orbital functions:                                                  6
 Number of independent orbital functions:                                      6

 Extrapolation method: ASPC


 SCF WAVEFUNCTION OPTIMIZATION

  ----------------------------------- OT ---------------------------------------
  Minimizer      : CG                  : conjugate gradient
  Preconditioner : FULL_SINGLE_INVERSE : inversion of 
                                         H + eS - 2*(Sc)(c^T*H*c+const)(Sc)^T
  Precond_solver : DEFAULT
  Line search    : 2PNT                : 2 energies, one gradient
  stepsize       :    0.08000000                  energy_gap     :    0.08000000
  eps_taylor     :   0.10000E-15                  max_taylor     :             4
  ----------------------------------- OT ---------------------------------------

  Step     Update method      Time    Convergence         Total energy    Change
  ------------------------------------------------------------------------------
     1 OT CG       0.80E-01    0.1     0.00019258        -4.0673919024 -4.07E+00
     2 OT LS       0.28E+00    0.0                       -4.0673919635
     3 OT CG       0.28E+00    0.0     0.00003019        -4.0673920276 -1.25E-07
     4 OT LS       0.22E+00    0.0                       -4.0673920298
     5 OT CG       0.22E+00    0.0     0.00000625        -4.0673920300 -2.42E-09
     6 OT LS       0.24E+00    0.0                       -4.0673920301
     7 OT CG       0.24E+00    0.0     0.00000027        -4.0673920301 -1.13E-10

  *** SCF run converged in     7 steps ***


  Core Hamiltonian energy:                                     -4.17722513340327
  Repulsive potential energy:                                   0.08532349617857
  Electronic energy:                                            0.02094245636052
  Dispersion energy:                                            0.00356715073732

  Total energy:                                                -4.06739203012686

 ENERGY| Total FORCE_EVAL ( QS ) energy (a.u.):               -4.067392030127027


 *******************************************************************************
 ENSEMBLE TYPE                =                                              NVE
 STEP NUMBER                  =                                               10
 TIME [fs]                    =                                         5.000000
 CONSERVED QUANTITY [hartree] =                              -0.406605893751E+01

                                              INSTANTANEOUS             AVERAGES
 CPU TIME [s]                 =                        0.26                 0.91
 ENERGY DRIFT PER ATOM [K]    =          0.480855646904E+00   0.152534908667E+00
 POTENTIAL ENERGY[hartree]    =         -0.406739203013E+01  -0.406726670439E+01
 KINETIC ENERGY [hartree]     =          0.133309261656E-02   0.120550375320E-02
 TEMPERATURE [K]              =                     280.638              253.778
 *******************************************************************************


 Number of electrons:                                                          8
 Number of occupied orbitals:                                                  4
 Number of molecular orbitals:                                                 4

 Number of orbital functions:                                                  6
 Number of independent orbital functions:                                      6

 Extrapolation method: ASPC


 SCF WAVEFUNCTION OPTIMIZATION

  ----------------------------------- OT ---------------------------------------
  Minimizer      : CG                  : conjugate gradient
  Preconditioner : FULL_SINGLE_INVERSE : inversion of 
                                         H + eS - 2*(Sc)(c^T*H*c+const)(Sc)^T
  Precond_solver : DEFAULT
  Line search    : 2PNT                : 2 energies, one gradient
  stepsize       :    0.08000000                  energy_gap     :    0.08000000
  eps_taylor     :   0.10000E-15                  max_taylor     :             4
  ----------------------------------- OT ---------------------------------------

  Step     Update method      Time    Convergence         Total energy    Change
  ------------------------------------------------------------------------------
     1 OT CG       0.80E-01    0.1     0.00025891        -4.0672244822 -4.07E+00
     2 OT LS       0.27E+00    0.0                       -4.0672245921
     3 OT CG       0.27E+00    0.0     0.00004435        -4.0672247025 -2.20E-07
     4 OT LS       0.22E+00    0.0                       -4.0672247073
     5 OT CG       0.22E+00    0.0     0.00000828        -4.0672247077 -5.14E-09
     6 OT LS       0.26E+00    0.0                       -4.0672247079
     7 OT CG       0.26E+00    0.1     0.00000032        -4.0672247079 -2.12E-10
     8 OT LS       0.21E+00    0.0                       -4.0672247079
     9 OT CG       0.21E+00    0.0     0.00000007        -4.0672247079 -2.54E-13

  *** SCF run converged in     9 steps ***


  Core Hamiltonian energy:                                     -4.17881925459960
  Repulsive potential energy:                                   0.08712308817147
  Electronic energy:                                            0.02090528594667
  Dispersion energy:                                            0.00356617260773

  Total energy:                                                -4.06722470787372

 ENERGY| Total FORCE_EVAL ( QS ) energy (a.u.):               -4.067224707873736


 Number of electrons:                                                          8
 Number of occupied orbitals:                                                  4
 Number of molecular orbitals:                                                 4

 Number of orbital functions:                                                  6
 Number of independent orbital functions:                                      6

 Extrapolation method: ASPC


 SCF WAVEFUNCTION OPTIMIZATION

  ----------------------------------- OT ---------------------------------------
  Minimizer      : CG                  : conjugate gradient
  Preconditioner : FULL_SINGLE_INVERSE : inversion of 
                                         H + eS - 2*(Sc)(c^T*H*c+const)(Sc)^T
  Precond_solver : DEFAULT
  Line search    : 2PNT                : 2 energies, one gradient
  stepsize       :    0.08000000                  energy_gap     :    0.08000000
  eps_taylor     :   0.10000E-15                  max_taylor     :             4
  ----------------------------------- OT ---------------------------------------

  Step     Update method      Time    Convergence         Total energy    Change
  ------------------------------------------------------------------------------
     1 OT CG       0.80E-01    0.1     0.00028803        -4.0672756805 -4.07E+00
     2 OT LS       0.27E+00    0.0                       -4.0672758161
     3 OT CG       0.27E+00    0.0     0.00005083        -4.0672759481 -2.68E-07
     4 OT LS       0.22E+00    0.0                       -4.0672759544
     5 OT CG       0.22E+00    0.0     0.00000909        -4.0672759548 -6.71E-09
     6 OT LS       0.27E+00    0.0                       -4.0672759551
     7 OT CG       0.27E+00    0.0     0.00000033        -4.0672759551 -2.64E-10
     8 OT LS       0.25E+00    0.0                       -4.0672759551
     9 OT CG       0.25E+00    0.0     0.00000009        -4.0672759551 -3.22E-13

  *** SCF run converged in     9 steps ***


  Core Hamiltonian energy:                                     -4.17858091337483
  Repulsive potential energy:                                   0.08682843588483
  Electronic energy:                                            0.02091363618126
  Dispersion energy:                                            0.00356288624489

  Total energy:                                                -4.06727595506385

 ENERGY| Total FORCE_EVAL ( QS ) energy (a.u.):               -4.067275955063872


 Number of electrons:                                                          8
 Number of occupied orbitals:                                                  4
 Number of molecular orbitals:                                                 4

 Number of orbital functions:                                                  6
 Number of independent orbital functions:                                      6

 Extrapolation method: ASPC


 SCF WAVEFUNCTION OPTIMIZATION

  ----------------------------------- OT ---------------------------------------
  Minimizer      : CG                  : conjugate gradient
  Preconditioner : FULL_SINGLE_INVERSE : inversion of 
                                         H + eS - 2*(Sc)(c^T*H*c+const)(Sc)^T
  Precond_solver : DEFAULT
  Line search    : 2PNT                : 2 energies, one gradient
  stepsize       :    0.08000000                  energy_gap     :    0.08000000
  eps_taylor     :   0.10000E-15                  max_taylor     :             4
  ----------------------------------- OT ---------------------------------------

  Step     Update method      Time    Convergence         Total energy    Change
  ------------------------------------------------------------------------------
     1 OT CG       0.80E-01    0.1     0.00027071        -4.0675690619 -4.07E+00
     2 OT LS       0.26E+00    0.0                       -4.0675691814
     3 OT CG       0.26E+00    0.1     0.00004826        -4.0675692950 -2.33E-07
     4 OT LS       0.22E+00    0.0                       -4.0675693007
     5 OT CG       0.22E+00    0.1     0.00000859        -4.0675693010 -6.03E-09
     6 OT LS       0.27E+00    0.0                       -4.0675693012
     7 OT CG       0.27E+00    0.1     0.00000036        -4.0675693012 -2.41E-10
     8 OT LS       0.28E+00    0.0                       -4.0675693012
     9 OT CG       0.28E+00    0.1     0.00000011        -4.0675693012 -4.49E-13

  *** SCF run converged in     9 steps ***


  Core Hamiltonian energy:                                     -4.17654293588947
  Repulsive potential energy:                                   0.08444524929850
  Electronic energy:                                            0.02097108371544
  Dispersion energy:                                            0.00355730163580

  Total energy:                                                -4.06756930123973

 ENERGY| Total FORCE_EVAL ( QS ) energy (a.u.):               -4.067569301239764


 Number of electrons:                                                          8
 Number of occupied orbitals:                                                  4
 Number of molecular orbitals:                                                 4

 Number of orbital functions:                                                  6
 Number of independent orbital functions:                                      6

 Extrapolation method: ASPC


 SCF WAVEFUNCTION OPTIMIZATION

  ----------------------------------- OT ---------------------------------------
  Minimizer      : CG                  : conjugate gradient
  Preconditioner : FULL_SINGLE_INVERSE : inversion of 
                                         H + eS - 2*(Sc)(c^T*H*c+const)(Sc)^T
  Precond_solver : DEFAULT
  Line search    : 2PNT                : 2 energies, one gradient
  stepsize       :    0.08000000                  energy_gap     :    0.08000000
  eps_taylor     :   0.10000E-15                  max_taylor     :             4
  ----------------------------------- OT ---------------------------------------

  Step     Update method      Time    Convergence         Total energy    Change
  ------------------------------------------------------------------------------
     1 OT CG       0.80E-01    0.1     0.00021078        -4.0679738712 -4.07E+00
     2 OT LS       0.26E+00    0.0                       -4.0679739434
     3 OT CG       0.26E+00    0.0     0.00003779        -4.0679740105 -1.39E-07
     4 OT LS       0.21E+00    0.0                       -4.0679740141
     5 OT CG       0.21E+00    0.1     0.00000686        -4.0679740142 -3.68E-09
     6 OT LS       0.28E+00    0.0                       -4.0679740144
     7 OT CG       0.28E+00    0.1     0.00000038        -4.0679740144 -1.57E-10
     8 OT LS       0.31E+00    0.0                       -4.0679740144
     9 OT CG       0.31E+00    0.1     0.00000011        -4.0679740144 -5.33E-13

  *** SCF run converged in     9 steps ***


  Core Hamiltonian energy:                                     -4.17302452422275
  Repulsive potential energy:                                   0.08042974429398
  Electronic energy:                                            0.02107110050093
  Dispersion energy:                                            0.00354966503868

  Total energy:                                                -4.06797401438916

 ENERGY| Total FORCE_EVAL ( QS ) energy (a.u.):               -4.067974014389186


 Number of electrons:                                                          8
 Number of occupied orbitals:                                                  4
 Number of molecular orbitals:                                                 4

 Number of orbital functions:                                                  6
 Number of independent orbital functions:                                      6

 Extrapolation method: ASPC


 SCF WAVEFUNCTION OPTIMIZATION

  ----------------------------------- OT ---------------------------------------
  Minimizer      : CG                  : conjugate gradient
  Preconditioner : FULL_SINGLE_INVERSE : inversion of 
                                         H + eS - 2*(Sc)(c^T*H*c+const)(Sc)^T
  Precond_solver : DEFAULT
  Line search    : 2PNT                : 2 energies, one gradient
  stepsize       :    0.08000000                  energy_gap     :    0.08000000
  eps_taylor     :   0.10000E-15                  max_taylor     :             4
  ----------------------------------- OT ---------------------------------------

  Step     Update method      Time    Convergence         Total energy    Change
  ------------------------------------------------------------------------------
     1 OT CG       0.80E-01    0.1     0.00012536        -4.0682825282 -4.07E+00
     2 OT LS       0.26E+00    0.0                       -4.0682825537
     3 OT CG       0.26E+00    0.0     0.00002283        -4.0682825766 -4.84E-08
     4 OT LS       0.21E+00    0.0                       -4.0682825779
     5 OT CG       0.21E+00    0.0     0.00000438        -4.0682825780 -1.34E-09
     6 OT LS       0.29E+00    0.0                       -4.0682825781
     7 OT CG       0.29E+00    0.0     0.00000032        -4.0682825781 -6.69E-11
     8 OT LS       0.33E+00    0.0                       -4.0682825781
     9 OT CG       0.33E+00    0.0     0.00000007        -4.0682825781 -4.00E-13

  *** SCF run converged in     9 steps ***


  Core Hamiltonian energy:                                     -4.16855988471668
  Repulsive potential energy:                                   0.07553772420094
  Electronic energy:                                            0.02119911256338
  Dispersion energy:                                            0.00354046989420

  Total energy:                                                -4.06828257805817

 ENERGY| Total FORCE_EVAL ( QS ) energy (a.u.):               -4.068282578058173


 *******************************************************************************
 ENSEMBLE TYPE                =                                              NVE
 STEP NUMBER                  =                                               15
 TIME [fs]                    =                                         7.500000
 CONSERVED QUANTITY [hartree] =                              -0.406607973111E+01

                                              INSTANTANEOUS             AVERAGES
 CPU TIME [s]                 =                        0.32                 0.72
 ENERGY DRIFT PER ATOM [K]    =         -0.170784187779E+01   0.209717562682E+00
 POTENTIAL ENERGY[hartree]    =         -0.406828257806E+01  -0.406739957337E+01
 KINETIC ENERGY [hartree]     =          0.220284694499E-02   0.133863063653E-02
 TEMPERATURE [K]              =                     463.735              281.804
 *******************************************************************************


 Number of electrons:                                                          8
 Number of occupied orbitals:                                                  4
 Number of molecular orbitals:                                                 4

 Number of orbital functions:                                                  6
 Number of independent orbital functions:                                      6

 Extrapolation method: ASPC


 SCF WAVEFUNCTION OPTIMIZATION

  ----------------------------------- OT ---------------------------------------
  Minimizer      : CG                  : conjugate gradient
  Preconditioner : FULL_SINGLE_INVERSE : inversion of 
                                         H + eS - 2*(Sc)(c^T*H*c+const)(Sc)^T
  Precond_solver : DEFAULT
  Line search    : 2PNT                : 2 energies, one gradient
  stepsize       :    0.08000000                  energy_gap     :    0.08000000
  eps_taylor     :   0.10000E-15                  max_taylor     :             4
  ----------------------------------- OT ---------------------------------------

  Step     Update method      Time    Convergence         Total energy    Change
  ------------------------------------------------------------------------------
     1 OT CG       0.80E-01    0.1     0.00005443        -4.0683360605 -4.07E+00
     2 OT LS       0.27E+00    0.0                       -4.0683360653
     3 OT CG       0.27E+00    0.0     0.00001095        -4.0683360701 -9.61E-09
     4 OT LS       0.23E+00    0.0                       -4.0683360704
     5 OT CG       0.23E+00    0.0     0.00000265        -4.0683360704 -3.27E-10
     6 OT LS       0.27E+00    0.0                       -4.0683360704
     7 OT CG       0.27E+00    0.0     0.00000023        -4.0683360704 -2.26E-11

  *** SCF run converged in     7 steps ***


  Core Hamiltonian energy:                                     -4.16378299599219
  Repulsive potential energy:                                   0.07057932495370
  Electronic energy:                                            0.02133716479279
  Dispersion energy:                                            0.00353043583285

  Total energy:                                                -4.06833607041285

 ENERGY| Total FORCE_EVAL ( QS ) energy (a.u.):               -4.068336070413046


 Number of electrons:                                                          8
 Number of occupied orbitals:                                                  4
 Number of molecular orbitals:                                                 4

 Number of orbital functions:                                                  6
 Number of independent orbital functions:                                      6

 Extrapolation method: ASPC


 SCF WAVEFUNCTION OPTIMIZATION

  ----------------------------------- OT ---------------------------------------
  Minimizer      : CG                  : conjugate gradient
  Preconditioner : FULL_SINGLE_INVERSE : inversion of 
                                         H + eS - 2*(Sc)(c^T*H*c+const)(Sc)^T
  Precond_solver : DEFAULT
  Line search    : 2PNT                : 2 energies, one gradient
  stepsize       :    0.08000000                  energy_gap     :    0.08000000
  eps_taylor     :   0.10000E-15                  max_taylor     :             4
  ----------------------------------- OT ---------------------------------------

  Step     Update method      Time    Convergence         Total energy    Change
  ------------------------------------------------------------------------------
     1 OT CG       0.80E-01    0.1     0.00009696        -4.0681058696 -4.07E+00
     2 OT LS       0.29E+00    0.0                       -4.0681058851
     3 OT CG       0.29E+00    0.0     0.00001424        -4.0681059020 -3.24E-08
     4 OT LS       0.25E+00    0.0                       -4.0681059026
     5 OT CG       0.25E+00    0.0     0.00000331        -4.0681059026 -6.04E-10
     6 OT LS       0.20E+00    0.0                       -4.0681059026
     7 OT CG       0.20E+00    0.0     0.00000032        -4.0681059026 -2.67E-11
     8 OT LS       0.33E+00    0.0                       -4.0681059026
     9 OT CG       0.33E+00    0.0     0.00000009        -4.0681059026 -4.05E-13

[...]
 Number of molecular orbitals:                                                 4

 Number of orbital functions:                                                  6
 Number of independent orbital functions:                                      6

 Extrapolation method: ASPC


 SCF WAVEFUNCTION OPTIMIZATION

  ----------------------------------- OT ---------------------------------------
  Minimizer      : CG                  : conjugate gradient
  Preconditioner : FULL_SINGLE_INVERSE : inversion of 
                                         H + eS - 2*(Sc)(c^T*H*c+const)(Sc)^T
  Precond_solver : DEFAULT
  Line search    : 2PNT                : 2 energies, one gradient
  stepsize       :    0.08000000                  energy_gap     :    0.08000000
  eps_taylor     :   0.10000E-15                  max_taylor     :             4
  ----------------------------------- OT ---------------------------------------

  Step     Update method      Time    Convergence         Total energy    Change
  ------------------------------------------------------------------------------
     1 OT CG       0.80E-01    0.2     0.00019039        -4.0679841136 -4.07E+00
     2 OT LS       0.25E+00    0.1                       -4.0679841720
     3 OT CG       0.25E+00    0.1     0.00003389        -4.0679842217 -1.08E-07
     4 OT LS       0.21E+00    0.1                       -4.0679842244
     5 OT CG       0.21E+00    0.1     0.00000454        -4.0679842245 -2.84E-09
     6 OT LS       0.30E+00    0.1                       -4.0679842246
     7 OT CG       0.30E+00    0.1     0.00000017        -4.0679842246 -7.43E-11

  *** SCF run converged in     7 steps ***


  Core Hamiltonian energy:                                     -4.17063623600842
  Repulsive potential energy:                                   0.07799980567790
  Electronic energy:                                            0.02109961604871
  Dispersion energy:                                            0.00355258968822

  Total energy:                                                -4.06798422459359

 ENERGY| Total FORCE_EVAL ( QS ) energy (a.u.):               -4.067984224593673


 Number of electrons:                                                          8
 Number of occupied orbitals:                                                  4
 Number of molecular orbitals:                                                 4

 Number of orbital functions:                                                  6
 Number of independent orbital functions:                                      6

 Extrapolation method: ASPC


 SCF WAVEFUNCTION OPTIMIZATION

  ----------------------------------- OT ---------------------------------------
  Minimizer      : CG                  : conjugate gradient
  Preconditioner : FULL_SINGLE_INVERSE : inversion of 
                                         H + eS - 2*(Sc)(c^T*H*c+const)(Sc)^T
  Precond_solver : DEFAULT
  Line search    : 2PNT                : 2 energies, one gradient
  stepsize       :    0.08000000                  energy_gap     :    0.08000000
  eps_taylor     :   0.10000E-15                  max_taylor     :             4
  ----------------------------------- OT ---------------------------------------

  Step     Update method      Time    Convergence         Total energy    Change
  ------------------------------------------------------------------------------
     1 OT CG       0.80E-01    0.2     0.00020456        -4.0678638689 -4.07E+00
     2 OT LS       0.27E+00    0.1                       -4.0678639372
     3 OT CG       0.27E+00    0.1     0.00003769        -4.0678640032 -1.34E-07
     4 OT LS       0.22E+00    0.1                       -4.0678640067
     5 OT CG       0.22E+00    0.1     0.00000675        -4.0678640069 -3.68E-09
     6 OT LS       0.27E+00    0.1                       -4.0678640070
     7 OT CG       0.27E+00    0.1     0.00000026        -4.0678640070 -1.46E-10

  *** SCF run converged in     7 steps ***


  Core Hamiltonian energy:                                     -4.17496636603629
  Repulsive potential energy:                                   0.08253186871257
  Electronic energy:                                            0.02101609653982
  Dispersion energy:                                            0.00355439375505

  Total energy:                                                -4.06786400702885

 ENERGY| Total FORCE_EVAL ( QS ) energy (a.u.):               -4.067864007029005


 Number of electrons:                                                          8
 Number of occupied orbitals:                                                  4
 Number of molecular orbitals:                                                 4

 Number of orbital functions:                                                  6
 Number of independent orbital functions:                                      6

 Extrapolation method: ASPC


 SCF WAVEFUNCTION OPTIMIZATION

  ----------------------------------- OT ---------------------------------------
  Minimizer      : CG                  : conjugate gradient
  Preconditioner : FULL_SINGLE_INVERSE : inversion of 
                                         H + eS - 2*(Sc)(c^T*H*c+const)(Sc)^T
  Precond_solver : DEFAULT
  Line search    : 2PNT                : 2 energies, one gradient
  stepsize       :    0.08000000                  energy_gap     :    0.08000000
  eps_taylor     :   0.10000E-15                  max_taylor     :             4
  ----------------------------------- OT ---------------------------------------

  Step     Update method      Time    Convergence         Total energy    Change
  ------------------------------------------------------------------------------
     1 OT CG       0.80E-01    0.2     0.00021922        -4.0677059981 -4.07E+00
     2 OT LS       0.29E+00    0.1                       -4.0677060776
     3 OT CG       0.29E+00    0.1     0.00003456        -4.0677061653 -1.67E-07
     4 OT LS       0.22E+00    0.1                       -4.0677061682
     5 OT CG       0.22E+00    0.1     0.00000689        -4.0677061685 -3.19E-09
     6 OT LS       0.24E+00    0.1                       -4.0677061686
     7 OT CG       0.24E+00    0.1     0.00000028        -4.0677061686 -1.35E-10

  *** SCF run converged in     7 steps ***


  Core Hamiltonian energy:                                     -4.17809075204909
  Repulsive potential energy:                                   0.08587231011516
  Electronic energy:                                            0.02095764587692
  Dispersion energy:                                            0.00355462745411

  Total energy:                                                -4.06770616860290

 ENERGY| Total FORCE_EVAL ( QS ) energy (a.u.):               -4.067706168603086


 *******************************************************************************
 ENSEMBLE TYPE                =                                              NVE
 STEP NUMBER                  =                                              100
 TIME [fs]                    =                                        50.000000
 CONSERVED QUANTITY [hartree] =                              -0.406606006458E+01

                                              INSTANTANEOUS             AVERAGES
 CPU TIME [s]                 =                        0.97                 0.78
 ENERGY DRIFT PER ATOM [K]    =          0.362222343196E+00   0.727199420061E-01
 POTENTIAL ENERGY[hartree]    =         -0.406770616860E+01  -0.406748630843E+01
 KINETIC ENERGY [hartree]     =          0.164610402332E-02   0.142357905019E-02
 TEMPERATURE [K]              =                     346.532              299.687
 *******************************************************************************


 -------------------------------------------------------------------------------
 -                                                                             -
 -                                DBCSR STATISTICS                             -
 -                                                                             -
 -------------------------------------------------------------------------------
 COUNTER                                    TOTAL       BLAS       SMM       ACC
 flops    1 x    1 x    4                   34656     100.0%      0.0%      0.0%
 flops    4 x    1 x    4                   46208     100.0%      0.0%      0.0%
 flops    5 x    4 x    1                   57760     100.0%      0.0%      0.0%
 flops    1 x    4 x    1                   96640     100.0%      0.0%      0.0%
 flops    4 x    4 x    1                  362432     100.0%      0.0%      0.0%
 flops    1 x    4 x    4                  375360     100.0%      0.0%      0.0%
 flops    5 x    4 x    4                  762560     100.0%      0.0%      0.0%
 flops    4 x    4 x    4                 1338112     100.0%      0.0%      0.0%
 flops total                         3.073728E+06     100.0%      0.0%      0.0%
 flops max/rank                      2.651728E+06     100.0%      0.0%      0.0%
 matmuls inhomo. stacks                         0       0.0%      0.0%      0.0%
 matmuls total                              57576     100.0%      0.0%      0.0%
 number of processed stacks                 57576     100.0%      0.0%      0.0%
 average stack size                                     1.0       0.0       0.0
 marketing flops                     3.197088E+06
 -------------------------------------------------------------------------------
 # multiplications                          15321
 max memory usage/rank             130.875392E+06
 # max total images/rank                        2
 # MPI messages exchanged                 1103112
 # MPI messages filtered                        0
 MPI messages size (elements):
  total size                         2.058108E+06
  min size                           0.000000E+00
  max size                          20.000000E+00
  average size                       1.865729E+00
 MPI breakdown and total messages size (bytes):
             size <=      128             1076202                 12159264
       128 < size <=     8192               26910                  4305600
      8192 < size <=    32768                   0                        0
     32768 < size <=   131072                   0                        0
    131072 < size <=  4194304                   0                        0
   4194304 < size <= 16777216                   0                        0
  16777216 < size                               0                        0
 -------------------------------------------------------------------------------
 Warning: using a non-square number of MPI ranks might lead to poor performance.
          used ranks: 8
          suggested : 9 16
 -------------------------------------------------------------------------------

 MEMORY| Estimated peak process memory [MiB]                                 125

 -------------------------------------------------------------------------------
 -                                                                             -
 -                         MESSAGE PASSING PERFORMANCE                         -
 -                                                                             -
 -------------------------------------------------------------------------------

 ROUTINE             CALLS  TOT TIME [s]  AVE VOLUME [Bytes]  PERFORMANCE [MB/s]
 MP_Group                2         0.000
 MP_Bcast             9911         0.069               3160.              453.29
 MP_Allreduce        59202         0.977                 25.                1.53
 MP_Sync               328         0.001
 MP_Alltoall         67407         1.345                229.               11.48
 MP_Wait            735408         0.460
 MP_comm_split         327         0.021
 MP_ISend           345554         0.282                 72.               88.45
 MP_IRecv           341976         0.189                 65.              116.72
 MP_Recv               351         0.000                 48.               39.28
 MP_Memory          879658         0.368
 -------------------------------------------------------------------------------


 -------------------------------------------------------------------------------
 -                                                                             -
 -                           R E F E R E N C E S                               -
 -                                                                             -
 -------------------------------------------------------------------------------
 
 CP2K version 4.1, the CP2K developers group (2016).
 CP2K is freely available from https://www.cp2k.org/ .

 Schuett, Ole; Messmer, Peter; Hutter, Juerg; VandeVondele, Joost. 
 Electronic Structure Calculations on Graphics Processing Units, John Wiley & Sons, Ltd, 173-190 (2016). 
 GPU-Accelerated Sparse Matrix-Matrix Multiplication for Linear Scaling Density Functional Theory.
 http://dx.doi.org/10.1002/9781118670712.ch8


 Borstnik, U; VandeVondele, J; Weber, V; Hutter, J. 
 PARALLEL COMPUTING, 40 (5-6), 47-58 (2014). 
 Sparse matrix multiplication: The distributed block-compressed sparse
 row library.
 http://dx.doi.org/10.1016/j.parco.2014.03.012


 Hutter, J; Iannuzzi, M; Schiffmann, F; VandeVondele, J. 
 WILEY INTERDISCIPLINARY REVIEWS-COMPUTATIONAL MOLECULAR SCIENCE, 4 (1), 15-25 (2014). 
 CP2K: atomistic simulations of condensed matter systems.
 http://dx.doi.org/10.1002/wcms.1159


 Zhechkov, L; Heine, T; Patchkovskii, S; Seifert, G; Duarte, HA. 
 JOURNAL OF CHEMICAL THEORY AND COMPUTATION, 1 (5), 841-847 (2005). 
 An efficient a Posteriori treatment for dispersion interaction in
 density-functional-based tight binding.
 http://dx.doi.org/10.1021/ct050065y


 Frigo, M; Johnson, SG. 
 PROCEEDINGS OF THE IEEE, 93 (2), 216-231 (2005). 
 The design and implementation of FFTW3.
 http://dx.doi.org/10.1109/JPROC.2004.840301


 Kolafa, J. 
 JOURNAL OF COMPUTATIONAL CHEMISTRY, 25 (3), 335-342 (2004). 
 Time-reversible always stable predictor-corrector method for molecular dynamics of polarizable molecules.
 http://dx.doi.org/10.1002/jcc.10385


 VandeVondele, J; Hutter, J. 
 JOURNAL OF CHEMICAL PHYSICS, 118 (10), 4365-4369 (2003). 
 An efficient orbital transformation method for electronic structure
 calculations.
 http://dx.doi.org/10.1063/1.1543154


 Elstner, M; Porezag, D; Jungnickel, G; Elsner, J; Haugk, M;
 Frauenheim, T; Suhai, S; Seifert, G. 
 PHYSICAL REVIEW B, 58 (11), 7260-7268 (1998). 
 Self-consistent-charge density-functional tight-binding method for
 simulations of complex materials properties.
 http://dx.doi.org/10.1103/PhysRevB.58.7260


 Seifert, G; Porezag, D; Frauenheim, T. 
 INTERNATIONAL JOURNAL OF QUANTUM CHEMISTRY, 58 (2), 185-192 (1996). 
 Calculations of molecules, clusters, and solids with a simplified
 LCAO-DFT-LDA scheme.
 http://dx.doi.org/10.1002/(SICI)1097-461X(1996)58:2<185::AID-QUA7>3.0.CO;2-U


 POREZAG, D; FRAUENHEIM, T; KOHLER, T; SEIFERT, G; KASCHNER, R. 
 PHYSICAL REVIEW B, 51 (19), 12947-12957 (1995). 
 CONSTRUCTION OF TIGHT-BINDING-LIKE POTENTIALS ON THE BASIS OF
 DENSITY-FUNCTIONAL THEORY - APPLICATION TO CARBON.
 http://dx.doi.org/10.1103/PhysRevB.51.12947


 -------------------------------------------------------------------------------
 -                                                                             -
 -                                T I M I N G                                  -
 -                                                                             -
 -------------------------------------------------------------------------------
 SUBROUTINE                       CALLS  ASD         SELF TIME        TOTAL TIME
                                MAXIMUM       AVERAGE  MAXIMUM  AVERAGE  MAXIMUM
 CP2K                                 1  1.0    0.007    0.016   78.352   78.359
 qs_mol_dyn_low                       1  2.0    0.004    0.006   78.205   78.219
 qs_forces                          101  4.0    0.005    0.005   77.565   77.566
 qs_energies                        101  5.0    0.002    0.003   76.877   76.883
 dbcsr_multiply_generic           15321 12.2    0.422    0.428   71.595   71.869
 velocity_verlet                    100  3.0    0.188    0.213   71.721   71.770
 scf_env_do_scf                     101  6.0    0.004    0.017   69.614   69.614
 scf_env_do_scf_inner_loop         1141  6.7    0.050    0.213   64.061   64.062
 qs_scf_new_mos                    1141  7.7    0.006    0.008   60.870   60.886
 qs_scf_loop_do_ot                 1141  8.7    0.004    0.004   60.864   60.880
 ot_scf_mini                       1141  9.7    0.033    0.034   55.112   55.194
 make_m2s                         30642 13.2    0.358    0.396   44.860   45.477
 make_images                      30642 14.2   39.027   40.019   43.254   43.783
 ot_mini                           1141 10.7    0.004    0.004   29.558   29.570
 qs_ot_get_derivative               621 11.7    0.010    0.012   26.246   26.263
 multiply_cannon                  15321 13.2   19.465   20.023   23.668   23.841
 qs_ot_get_derivative_taylor        458 13.0    0.013    0.014   13.437   13.460
 qs_ot_get_orbitals                1141 10.7    0.012    0.013   11.171   11.255
 qs_ot_get_p                       1242 10.6    0.009    0.010    9.683    9.700
 calculate_dm_sparse               1242  9.7    0.007    0.007    6.395    6.421
 init_scf_run                       101  6.0    0.005    0.035    5.911    5.912
 scf_env_initial_rho_setup          101  7.0    0.003    0.019    5.905    5.910
 wfi_extrapolate                    101  8.0    0.004    0.005    5.865    5.870
 init_scf_loop                      101  7.0    0.002    0.002    5.532    5.534
 apply_preconditioner_dbcsr         722 12.8    0.001    0.001    3.769    3.821
 apply_single                       722 13.8    0.005    0.014    3.768    3.820
 rebuild_ks_matrix                 1242  8.5    0.002    0.002    3.640    3.683
 build_dftb_ks_matrix              1242  9.5    0.019    0.019    3.637    3.681
 prepare_preconditioner             101  8.0    0.000    0.000    3.522    3.525
 make_preconditioner                101  9.0    0.001    0.001    3.522    3.525
 make_full_single_inverse           101 10.0    0.007    0.008    3.474    3.477
 cp_dbcsr_sm_fm_multiply            493  9.4    0.009    0.009    3.402    3.402
 ot_new_cg_direction                621 11.7    0.003    0.004    3.227    3.228
 qs_ks_update_qs_env               1242  7.7    0.004    0.004    3.131    3.146
 cp_dbcsr_sm_fm_multiply_core       493 10.4    0.003    0.004    3.105    3.129
 make_images_sizes                30642 15.2    0.039    0.042    1.892    2.200
 mp_alltoall_i44                  30642 16.2    1.853    2.163    1.853    2.163
 cp_gemm                           1083  9.0    0.004    0.004    2.137    2.138
 cp_gemm_fm_gemm                   1083 10.0    0.004    0.004    2.133    2.134
 cp_fm_gemm                        1083 11.0    2.129    2.130    2.129    2.130
 mp_allgather_i34                 15321 14.2    1.546    2.039    1.546    2.039
 qs_ot_get_derivative_diag          163 12.0    0.005    0.005    2.015    2.016
 qs_ot_p2m_taylor                   915 11.8    0.005    0.005    1.815    1.838
 -------------------------------------------------------------------------------

 The number of warnings for this run is : 0
 
 -------------------------------------------------------------------------------
  **** **** ******  **  PROGRAM ENDED AT                 2018-03-24 08:25:47.296
 ***** ** ***  *** **   PROGRAM RAN ON                                    ubuntu
 **    ****   ******    PROGRAM RAN BY                                      user
 ***** **    ** ** **   PROGRAM PROCESS ID                                 15762
  **** **  *******  **  PROGRAM STOPPED IN       /home/user/LOKT.02.048/week5/IR
