 DBCSR| Multiplication driver                                               BLAS
 DBCSR| Multrec recursion limit                                              512
 DBCSR| Multiplication stack size                                           1000
 DBCSR| Maximum elements for images                                    UNLIMITED
 DBCSR| Multiplicative factor virtual images                                   1
 DBCSR| Randmat seed                                                    12341313
 DBCSR| Multiplication size stacks                                             3
 DBCSR| Number of 3D layers                                               SINGLE
 DBCSR| Use MPI memory allocation                                              T
 DBCSR| Use RMA algorithm                                                      F
 DBCSR| Use Communication thread                                               T
 DBCSR| Communication thread load                                             87


  **** **** ******  **  PROGRAM STARTED AT               2018-03-24 08:28:19.928
 ***** ** ***  *** **   PROGRAM STARTED ON                                ubuntu
 **    ****   ******    PROGRAM STARTED BY                                  user
 ***** **    ** ** **   PROGRAM PROCESS ID                                 15844
  **** **  *******  **  PROGRAM STARTED IN       /home/user/LOKT.02.048/week5/IR

 CP2K| version string:                                          CP2K version 4.1
 CP2K| source code revision number:                                    svn:17462
 CP2K| cp2kflags: libint fftw3 libxc elpa3 parallel mpi3 scalapack              
 CP2K| is freely available from                            https://www.cp2k.org/
 CP2K| Program compiled at                          Sat Aug  5 09:59:49 UTC 2017
 CP2K| Program compiled on                                              lgw01-13
 CP2K| Program compiled for                                Linux-x86_64-gfortran
 CP2K| Data directory path                                       /usr/share/cp2k
 CP2K| Input file name                                           IR-DFTB-bulk.in

 GLOBAL| Force Environment number                                              1
 GLOBAL| Basis set file name                                           BASIS_SET
 GLOBAL| Potential file name                                           POTENTIAL
 GLOBAL| MM Potential file name                                     MM_POTENTIAL
 GLOBAL| Coordinate file name                                       ./IR-32W.xyz
 GLOBAL| Method name                                                        CP2K
 GLOBAL| Project name                                                      WATER
 GLOBAL| Preferred FFT library                                             FFTW3
 GLOBAL| Preferred diagonalization lib.                                       SL
 GLOBAL| Run type                                                             MD
 GLOBAL| All-to-all communication in single precision                          F
 GLOBAL| FFTs using library dependent lengths                                  T
 GLOBAL| Global print level                                                  LOW
 GLOBAL| Total number of message passing processes                             8
 GLOBAL| Number of threads for this process                                    1
 GLOBAL| This output is from process                                           0
 GLOBAL| CPU model name :  Intel(R) Xeon(R) CPU           X5690  @ 3.47GHz

 MEMORY| system memory details [Kb]
 MEMORY|                        rank 0           min           max       average
 MEMORY| MemTotal             16402728      16402728      16402728      16402728
 MEMORY| MemFree               9596708       9596708       9596708       9596708
 MEMORY| Buffers                203972        203972        203972        203972
 MEMORY| Cached                3648948       3648948       3648948       3648948
 MEMORY| Slab                   311232        311232        311232        311232
 MEMORY| SReclaimable           226604        226604        226604        226604
 MEMORY| MemLikelyFree        13676232      13676232      13676232      13676232


 GENERATE|  Preliminary Number of Bonds generated:                             0
 GENERATE|  Achieved consistency in connectivity generation.


              #####   #####        # ######  ####### ####### ######   
             #     # #     #      #  #     # #          #    #     #  
             #     # #           #   #     # #          #    #     #  
             #     #  #####     #    #     # #####      #    ######   
             #   # #       #   #     #     # #          #    #     #  
             #    #  #     #  #      #     # #          #    #     #  
              #### #  #####  #       ######  #          #    ######   
                                                                      
                                    Version 0.2                       
                               J. Hutter and T. Heine                 
                                                                      



 SCF PARAMETERS         Density guess:                                    ATOMIC
                        --------------------------------------------------------
                        max_scf:                                            2000
                        max_scf_history:                                       0
                        max_diis:                                              4
                        --------------------------------------------------------
                        eps_scf:                                        3.00E-07
                        eps_scf_history:                                0.00E+00
                        eps_diis:                                       1.00E-01
                        eps_eigval:                                     1.00E-05
                        --------------------------------------------------------
                        level_shift [a.u.]:                                 0.00
                        --------------------------------------------------------
                        No outer SCF

 MD| Molecular Dynamics Protocol 
 MD| Ensemble Type                                                           NVE
 MD| Number of Time Steps                                                    100
 MD| Time Step [fs]                                                         0.50
 MD| Temperature [K]                                                      300.00
 MD| Temperature tolerance [K]                                              0.00
 MD| Print MD information every                                       20 step(s)
 MD| File type     Print frequency[steps]                             File names
 MD| Coordinates            1                                    WATER-pos-1.xyz
 MD| Velocities             1                                    WATER-vel-1.xyz
 MD| Energies              20                                       WATER-1.ener
 MD| Dump                  20                                    WATER-1.restart

 ROT| Rotational Analysis Info 
 ROT| Principal axes and moments of inertia in atomic units:
 ROT|                                1                 2                 3
 ROT| EIGENVALUES            0.501022817E+08   0.668798986E+08   0.690094280E+08
 ROT|      X                     0.505180556      -0.860206905       0.069546284
 ROT|      Y                     0.612068744       0.300308727      -0.731564434
 ROT|      Z                     0.608411422       0.412139234       0.678215889
 ROT| Numer of Rotovibrational vectors:     6

 Calculation of degrees of freedom
                                                      Number of atoms:        96
                                 Number of Intramolecular constraints:         0
                                 Number of Intermolecular constraints:         0
                                  Invariants(translation + rotations):         6
                                                   Degrees of freedom:       282


 Restraints Information
                                  Number of Intramolecular restraints:         0
                                  Number of Intermolecular restraints:         0
 ************************** Velocities initialization **************************
 Initial Temperature                                                    300.00 K
 COM velocity:            0.000000000000     -0.000000000000      0.000000000000
 COM position:            6.787264405773      6.848372324029      1.176867800311
 Angular velocity:       -0.000001188567     -0.000000176282      0.000009305917
 *******************************************************************************


 Number of electrons:                                                        256
 Number of occupied orbitals:                                                128
 Number of molecular orbitals:                                               128

 Number of orbital functions:                                                192
 Number of independent orbital functions:                                    192

 Extrapolation method: initial_guess


 SCF WAVEFUNCTION OPTIMIZATION

  ----------------------------------- OT ---------------------------------------
  Minimizer      : CG                  : conjugate gradient
  Preconditioner : FULL_SINGLE_INVERSE : inversion of 
                                         H + eS - 2*(Sc)(c^T*H*c+const)(Sc)^T
  Precond_solver : DEFAULT
  Line search    : 2PNT                : 2 energies, one gradient
  stepsize       :    0.08000000                  energy_gap     :    0.08000000
  eps_taylor     :   0.10000E-15                  max_taylor     :             4
  ----------------------------------- OT ---------------------------------------

  Step     Update method      Time    Convergence         Total energy    Change
  ------------------------------------------------------------------------------
     1 OT CG       0.80E-01    0.1     0.07884768      -104.3920424935 -1.04E+02
     2 OT LS       0.25E+00    0.0                     -114.6198306122
     3 OT CG       0.25E+00    0.1     0.05974882      -119.8008688103 -1.54E+01
     4 OT LS       0.97E-01    0.0                     -115.3837419622
     5 OT CG       0.97E-01    0.0     0.05448233      -123.3575822480 -3.56E+00
     6 OT LS       0.12E+00    0.0                     -127.5873012546
     7 OT CG       0.12E+00    0.0     0.02767774      -127.5387548231 -4.18E+00
     8 OT LS       0.91E-01    0.0                     -128.1546005878
     9 OT CG       0.91E-01    0.0     0.01885528      -128.2327562644 -6.94E-01
    10 OT LS       0.11E+00    0.0                     -128.6839759305
    11 OT CG       0.11E+00    0.0     0.00833324      -128.6898605302 -4.57E-01
    12 OT LS       0.16E+00    0.0                     -128.8086572052
    13 OT CG       0.16E+00    0.0     0.00613641      -128.8249266841 -1.35E-01
    14 OT LS       0.16E+00    0.0                     -128.8980748027
    15 OT CG       0.16E+00    0.0     0.00476736      -128.8981446395 -7.32E-02
    16 OT LS       0.16E+00    0.0                     -128.9430522148
    17 OT CG       0.16E+00    0.0     0.00414309      -128.9430619229 -4.49E-02
    18 OT LS       0.19E+00    0.0                     -128.9822117131
    19 OT CG       0.19E+00    0.0     0.00396709      -128.9828334723 -3.98E-02
    20 OT LS       0.16E+00    0.0                     -129.0131373125
    21 OT CG       0.16E+00    0.0     0.00370189      -129.0141465223 -3.13E-02
    22 OT LS       0.19E+00    0.0                     -129.0456584678
    23 OT CG       0.19E+00    0.0     0.00383069      -129.0466724958 -3.25E-02
    24 OT LS       0.33E+00    0.0                     -129.0968398864
    25 OT CG       0.33E+00    0.0     0.00671508      -129.0995730468 -5.29E-02
    26 OT LS       0.25E-01    0.0                     -127.7372936528
    27 OT CG       0.25E-01    0.0     0.00700011      -129.1141748687 -1.46E-02
    28 OT LS       0.98E-01    0.0                     -129.1408662930
    29 OT CG       0.98E-01    0.0     0.00518071      -129.1773592830 -6.32E-02
    30 OT LS       0.24E+00    0.0                     -129.2310282232
    31 OT CG       0.24E+00    0.0     0.00784406      -129.2598418270 -8.25E-02
    32 OT LS       0.12E+00    0.0                     -129.2752109117
    33 OT CG       0.12E+00    0.0     0.00795008      -129.3900738624 -1.30E-01
    34 OT LS       0.15E+00    0.0                     -129.5130712270
    35 OT CG       0.15E+00    0.0     0.00969742      -129.5153432102 -1.25E-01
    36 OT LS       0.11E+00    0.0                     -129.6186536909
    37 OT CG       0.11E+00    0.0     0.00811562      -129.6381923113 -1.23E-01
    38 OT LS       0.14E+00    0.0                     -129.7464111682
    39 OT CG       0.14E+00    0.0     0.00630651      -129.7528501372 -1.15E-01
    40 OT LS       0.15E+00    0.0                     -129.8272234262
    41 OT CG       0.15E+00    0.0     0.00613592      -129.8270095012 -7.42E-02
    42 OT LS       0.16E+00    0.0                     -129.8969064956
    43 OT CG       0.16E+00    0.0     0.00732963      -129.8966737490 -6.97E-02
    44 OT LS       0.11E+00    0.0                     -129.9436133298
    45 OT CG       0.11E+00    0.0     0.00459872      -129.9597974403 -6.31E-02
    46 OT LS       0.15E+00    0.0                     -129.9949840370
    47 OT CG       0.15E+00    0.0     0.00378412      -129.9970698732 -3.73E-02
    48 OT LS       0.15E+00    0.0                     -130.0210561058
    49 OT CG       0.15E+00    0.0     0.00333924      -130.0210567782 -2.40E-02
    50 OT LS       0.13E+00    0.0                     -130.0385723212
    51 OT CG       0.13E+00    0.1     0.00285660      -130.0388340579 -1.78E-02
    52 OT LS       0.13E+00    0.0                     -130.0524188094
    53 OT CG       0.13E+00    0.0     0.00259943      -130.0524028606 -1.36E-02
    54 OT LS       0.17E+00    0.0                     -130.0655692979
    55 OT CG       0.17E+00    0.0     0.00269463      -130.0664742455 -1.41E-02
    56 OT LS       0.15E+00    0.0                     -130.0795867233
    57 OT CG       0.15E+00    0.0     0.00246958      -130.0799629386 -1.35E-02
    58 OT LS       0.13E+00    0.0                     -130.0898125079
    59 OT CG       0.13E+00    0.0     0.00231136      -130.0900652595 -1.01E-02
    60 OT LS       0.13E+00    0.0                     -130.0982767517
    61 OT CG       0.13E+00    0.0     0.00208675      -130.0982704209 -8.21E-03
    62 OT LS       0.16E+00    0.0                     -130.1067073679
    63 OT CG       0.16E+00    0.0     0.00193391      -130.1069931838 -8.72E-03
    64 OT LS       0.14E+00    0.0                     -130.1129994628
    65 OT CG       0.14E+00    0.0     0.00189888      -130.1131878876 -6.19E-03
    66 OT LS       0.13E+00    0.0                     -130.1191238536
    67 OT CG       0.13E+00    0.0     0.00170490      -130.1191212475 -5.93E-03
    68 OT LS       0.16E+00    0.0                     -130.1248574152
    69 OT CG       0.16E+00    0.0     0.00171535      -130.1249484348 -5.83E-03
    70 OT LS       0.14E+00    0.0                     -130.1295328088
    71 OT CG       0.14E+00    0.0     0.00163383      -130.1296228848 -4.67E-03
    72 OT LS       0.14E+00    0.0                     -130.1343583595
    73 OT CG       0.14E+00    0.0     0.00157756      -130.1343590978 -4.74E-03
    74 OT LS       0.15E+00    0.0                     -130.1387899793
    75 OT CG       0.15E+00    0.0     0.00149551      -130.1387904841 -4.43E-03
    76 OT LS       0.14E+00    0.0                     -130.1426138603
    77 OT CG       0.14E+00    0.0     0.00138338      -130.1426095055 -3.82E-03
    78 OT LS       0.14E+00    0.0                     -130.1459762632
    79 OT CG       0.14E+00    0.0     0.00120289      -130.1459820755 -3.37E-03
    80 OT LS       0.12E+00    0.0                     -130.1480071030
    81 OT CG       0.12E+00    0.0     0.00109956      -130.1480314057 -2.05E-03
    82 OT LS       0.13E+00    0.0                     -130.1500308537
    83 OT CG       0.13E+00    0.0     0.00088160      -130.1500478885 -2.02E-03
    84 OT LS       0.16E+00    0.0                     -130.1515453073
    85 OT CG       0.16E+00    0.0     0.00089276      -130.1515783078 -1.53E-03
    86 OT LS       0.13E+00    0.0                     -130.1526862225
    87 OT CG       0.13E+00    0.0     0.00086837      -130.1527590640 -1.18E-03
    88 OT LS       0.16E+00    0.0                     -130.1541802818
    89 OT CG       0.16E+00    0.0     0.00079766      -130.1542277489 -1.47E-03
    90 OT LS       0.14E+00    0.0                     -130.1553039369
    91 OT CG       0.14E+00    0.0     0.00076680      -130.1553126351 -1.08E-03
    92 OT LS       0.14E+00    0.0                     -130.1563395150
    93 OT CG       0.14E+00    0.0     0.00074127      -130.1563393750 -1.03E-03
    94 OT LS       0.14E+00    0.0                     -130.1572698442
    95 OT CG       0.14E+00    0.0     0.00070151      -130.1572731033 -9.34E-04
    96 OT LS       0.17E+00    0.0                     -130.1582397084
    97 OT CG       0.17E+00    0.1     0.00077106      -130.1582916920 -1.02E-03
    98 OT LS       0.16E+00    0.0                     -130.1594758283
    99 OT CG       0.16E+00    0.0     0.00084963      -130.1594879286 -1.20E-03
   100 OT LS       0.14E+00    0.0                     -130.1606946055
   101 OT CG       0.14E+00    0.0     0.00092439      -130.1607184114 -1.23E-03
   102 OT LS       0.15E+00    0.0                     -130.1622509261
   103 OT CG       0.15E+00    0.0     0.00086791      -130.1622623333 -1.54E-03
   104 OT LS       0.15E+00    0.0                     -130.1636834405
   105 OT CG       0.15E+00    0.0     0.00090930      -130.1636869157 -1.42E-03
   106 OT LS       0.12E+00    0.0                     -130.1647570938
   107 OT CG       0.12E+00    0.0     0.00094218      -130.1648163029 -1.13E-03
   108 OT LS       0.12E+00    0.0                     -130.1661640381
   109 OT CG       0.12E+00    0.0     0.00079510      -130.1661702998 -1.35E-03
   110 OT LS       0.14E+00    0.0                     -130.1672961650
   111 OT CG       0.14E+00    0.0     0.00081429      -130.1673008508 -1.13E-03
   112 OT LS       0.12E+00    0.0                     -130.1681722860
   113 OT CG       0.12E+00    0.0     0.00090656      -130.1682046521 -9.04E-04
   114 OT LS       0.14E+00    0.0                     -130.1695581535
   115 OT CG       0.14E+00    0.0     0.00082221      -130.1695948185 -1.39E-03
   116 OT LS       0.13E+00    0.0                     -130.1707165360
   117 OT CG       0.13E+00    0.0     0.00077875      -130.1707273064 -1.13E-03
   118 OT LS       0.12E+00    0.0                     -130.1715830808
   119 OT CG       0.12E+00    0.0     0.00088726      -130.1715863862 -8.59E-04
   120 OT LS       0.12E+00    0.0                     -130.1727662948
   121 OT CG       0.12E+00    0.0     0.00077520      -130.1727668761 -1.18E-03
   122 OT LS       0.14E+00    0.0                     -130.1737962688
   123 OT CG       0.14E+00    0.0     0.00071543      -130.1738062112 -1.04E-03
   124 OT LS       0.12E+00    0.0                     -130.1745099016
   125 OT CG       0.12E+00    0.0     0.00073492      -130.1745301552 -7.24E-04
   126 OT LS       0.11E+00    0.0                     -130.1752935148
   127 OT CG       0.11E+00    0.0     0.00070321      -130.1752947886 -7.65E-04
   128 OT LS       0.13E+00    0.0                     -130.1760744499
   129 OT CG       0.13E+00    0.0     0.00058574      -130.1760967597 -8.02E-04
   130 OT LS       0.12E+00    0.0                     -130.1766158060
   131 OT CG       0.12E+00    0.0     0.00060439      -130.1766209474 -5.24E-04
   132 OT LS       0.10E+00    0.0                     -130.1770562703
   133 OT CG       0.10E+00    0.0     0.00056624      -130.1770810612 -4.60E-04
   134 OT LS       0.14E+00    0.0                     -130.1775750332
   135 OT CG       0.14E+00    0.0     0.00057522      -130.1776207931 -5.40E-04
   136 OT LS       0.12E+00    0.0                     -130.1780807824
   137 OT CG       0.12E+00    0.0     0.00060039      -130.1780963956 -4.76E-04
   138 OT LS       0.97E-01    0.0                     -130.1785156916
   139 OT CG       0.97E-01    0.1     0.00051590      -130.1785371913 -4.41E-04
   140 OT LS       0.14E+00    0.0                     -130.1789349397
   141 OT CG       0.14E+00    0.0     0.00058788      -130.1789684415 -4.31E-04
   142 OT LS       0.94E-01    0.0                     -130.1792845714
   143 OT CG       0.94E-01    0.0     0.00053466      -130.1793531922 -3.85E-04
   144 OT LS       0.11E+00    0.0                     -130.1797375252
   145 OT CG       0.11E+00    0.0     0.00046109      -130.1797458027 -3.93E-04
   146 OT LS       0.13E+00    0.0                     -130.1800650184
   147 OT CG       0.13E+00    0.0     0.00049279      -130.1800680416 -3.22E-04
   148 OT LS       0.10E+00    0.0                     -130.1803367820
   149 OT CG       0.10E+00    0.0     0.00048587      -130.1803559180 -2.88E-04
   150 OT LS       0.11E+00    0.0                     -130.1806678057
   151 OT CG       0.11E+00    0.1     0.00040766      -130.1806691950 -3.13E-04
   152 OT LS       0.14E+00    0.0                     -130.1809405352
   153 OT CG       0.14E+00    0.0     0.00043475      -130.1809566724 -2.87E-04
   154 OT LS       0.11E+00    0.0                     -130.1811753139
   155 OT CG       0.11E+00    0.0     0.00043299      -130.1812009248 -2.44E-04
   156 OT LS       0.10E+00    0.0                     -130.1814337387
   157 OT CG       0.10E+00    0.1     0.00039000      -130.1814346503 -2.34E-04
   158 OT LS       0.12E+00    0.0                     -130.1816497501
   159 OT CG       0.12E+00    0.1     0.00032695      -130.1816548475 -2.20E-04
   160 OT LS       0.12E+00    0.0                     -130.1818097572
   161 OT CG       0.12E+00    0.1     0.00032745      -130.1818097924 -1.55E-04
   162 OT LS       0.96E-01    0.0                     -130.1819292521
   163 OT CG       0.96E-01    0.1     0.00030437      -130.1819356441 -1.26E-04
   164 OT LS       0.12E+00    0.0                     -130.1820633553
   165 OT CG       0.12E+00    0.1     0.00027614      -130.1820678054 -1.32E-04
   166 OT LS       0.12E+00    0.0                     -130.1821850825
   167 OT CG       0.12E+00    0.1     0.00027320      -130.1821856455 -1.18E-04
   168 OT LS       0.10E+00    0.0                     -130.1822777962
   169 OT CG       0.10E+00    0.1     0.00027685      -130.1822815199 -9.59E-05
   170 OT LS       0.10E+00    0.0                     -130.1823765030
   171 OT CG       0.10E+00    0.1     0.00023597      -130.1823766080 -9.51E-05
   172 OT LS       0.14E+00    0.0                     -130.1824650941
   173 OT CG       0.14E+00    0.1     0.00022981      -130.1824726996 -9.61E-05
   174 OT LS       0.93E-01    0.0                     -130.1825180070
   175 OT CG       0.93E-01    0.1     0.00022535      -130.1825333732 -6.07E-05
   176 OT LS       0.11E+00    0.0                     -130.1825992853
   177 OT CG       0.11E+00    0.1     0.00018724      -130.1826004149 -6.70E-05
   178 OT LS       0.13E+00    0.0                     -130.1826548227
   179 OT CG       0.13E+00    0.1     0.00019374      -130.1826565978 -5.62E-05
   180 OT LS       0.10E+00    0.0                     -130.1826999819
   181 OT CG       0.10E+00    0.1     0.00019143      -130.1827036445 -4.70E-05
   182 OT LS       0.11E+00    0.0                     -130.1827513922
   183 OT CG       0.11E+00    0.1     0.00017595      -130.1827514571 -4.78E-05
   184 OT LS       0.13E+00    0.0                     -130.1827989565
   185 OT CG       0.13E+00    0.1     0.00017270      -130.1828004829 -4.90E-05
   186 OT LS       0.12E+00    0.0                     -130.1828421624
   187 OT CG       0.12E+00    0.1     0.00018276      -130.1828427424 -4.23E-05
   188 OT LS       0.98E-01    0.0                     -130.1828815969
   189 OT CG       0.98E-01    0.1     0.00016598      -130.1828828867 -4.01E-05
   190 OT LS       0.13E+00    0.0                     -130.1829245744
   191 OT CG       0.13E+00    0.1     0.00016370      -130.1829275737 -4.47E-05
   192 OT LS       0.13E+00    0.0                     -130.1829686923
   193 OT CG       0.13E+00    0.1     0.00017663      -130.1829688323 -4.13E-05
   194 OT LS       0.97E-01    0.0                     -130.1830027464
   195 OT CG       0.97E-01    0.1     0.00016679      -130.1830058463 -3.70E-05
   196 OT LS       0.12E+00    0.0                     -130.1830453619
   197 OT CG       0.12E+00    0.1     0.00014805      -130.1830469522 -4.11E-05
   198 OT LS       0.13E+00    0.0                     -130.1830823629
   199 OT CG       0.13E+00    0.1     0.00015403      -130.1830826144 -3.57E-05
   200 OT LS       0.88E-01    0.0                     -130.1831017939
   201 OT CG       0.88E-01    0.1     0.00013885      -130.1831080966 -2.55E-05
   202 OT LS       0.12E+00    0.0                     -130.1831346900
   203 OT CG       0.12E+00    0.1     0.00012518      -130.1831369499 -2.89E-05
   204 OT LS       0.12E+00    0.0                     -130.1831609178
   205 OT CG       0.12E+00    0.1     0.00012623      -130.1831609246 -2.40E-05
   206 OT LS       0.10E+00    0.0                     -130.1831798006
   207 OT CG       0.10E+00    0.1     0.00012241      -130.1831807599 -1.98E-05
   208 OT LS       0.11E+00    0.0                     -130.1832006774
   209 OT CG       0.11E+00    0.1     0.00011289      -130.1832007633 -2.00E-05
   210 OT LS       0.12E+00    0.0                     -130.1832199924
   211 OT CG       0.12E+00    0.1     0.00010703      -130.1832203235 -1.96E-05
   212 OT LS       0.12E+00    0.0                     -130.1832369460
   213 OT CG       0.12E+00    0.1     0.00011427      -130.1832369907 -1.67E-05
   214 OT LS       0.94E-01    0.0                     -130.1832511052
   215 OT CG       0.94E-01    0.1     0.00009877      -130.1832521297 -1.51E-05
   216 OT LS       0.14E+00    0.0                     -130.1832669628
   217 OT CG       0.14E+00    0.1     0.00009720      -130.1832685702 -1.64E-05
   218 OT LS       0.13E+00    0.0                     -130.1832831901
   219 OT CG       0.13E+00    0.1     0.00010976      -130.1832832732 -1.47E-05
   220 OT LS       0.96E-01    0.0                     -130.1832959407
   221 OT CG       0.96E-01    0.1     0.00009977      -130.1832974888 -1.42E-05
   222 OT LS       0.15E+00    0.0                     -130.1833133494
   223 OT CG       0.15E+00    0.1     0.00010038      -130.1833155337 -1.80E-05
   224 OT LS       0.14E+00    0.0                     -130.1833319419
   225 OT CG       0.14E+00    0.1     0.00011750      -130.1833320788 -1.65E-05
   226 OT LS       0.94E-01    0.0                     -130.1833448764
   227 OT CG       0.94E-01    0.1     0.00010365      -130.1833479947 -1.59E-05
   228 OT LS       0.14E+00    0.0                     -130.1833646839
   229 OT CG       0.14E+00    0.1     0.00010014      -130.1833669286 -1.89E-05
   230 OT LS       0.13E+00    0.0                     -130.1833831124
   231 OT CG       0.13E+00    0.1     0.00011196      -130.1833832116 -1.63E-05
   232 OT LS       0.95E-01    0.0                     -130.1833954533
   233 OT CG       0.95E-01    0.1     0.00009984      -130.1833978308 -1.46E-05
   234 OT LS       0.13E+00    0.0                     -130.1834125145
   235 OT CG       0.13E+00    0.1     0.00009626      -130.1834136031 -1.58E-05
   236 OT LS       0.12E+00    0.0                     -130.1834277902
   237 OT CG       0.12E+00    0.1     0.00009532      -130.1834278075 -1.42E-05
   238 OT LS       0.12E+00    0.0                     -130.1834411590
   239 OT CG       0.12E+00    0.1     0.00010062      -130.1834411797 -1.34E-05
   240 OT LS       0.11E+00    0.0                     -130.1834540214
   241 OT CG       0.11E+00    0.1     0.00009538      -130.1834542636 -1.31E-05
   242 OT LS       0.13E+00    0.0                     -130.1834684133
   243 OT CG       0.13E+00    0.1     0.00008976      -130.1834690108 -1.47E-05
   244 OT LS       0.14E+00    0.0                     -130.1834832320
   245 OT CG       0.14E+00    0.1     0.00009973      -130.1834833274 -1.43E-05
   246 OT LS       0.97E-01    0.0                     -130.1834923769
   247 OT CG       0.97E-01    0.1     0.00009822      -130.1834951303 -1.18E-05
   248 OT LS       0.13E+00    0.0                     -130.1835095954
   249 OT CG       0.13E+00    0.1     0.00008932      -130.1835106567 -1.55E-05
   250 OT LS       0.16E+00    0.0                     -130.1835257516
   251 OT CG       0.16E+00    0.1     0.00009723      -130.1835261567 -1.55E-05
   252 OT LS       0.11E+00    0.0                     -130.1835353872
   253 OT CG       0.11E+00    0.1     0.00010420      -130.1835383229 -1.22E-05
   254 OT LS       0.12E+00    0.1                     -130.1835544221
   255 OT CG       0.12E+00    0.1     0.00009816      -130.1835547994 -1.65E-05
   256 OT LS       0.15E+00    0.0                     -130.1835724344
   257 OT CG       0.15E+00    0.1     0.00009935      -130.1835732179 -1.84E-05
   258 OT LS       0.12E+00    0.0                     -130.1835871458
   259 OT CG       0.12E+00    0.1     0.00011056      -130.1835882274 -1.50E-05
   260 OT LS       0.11E+00    0.0                     -130.1836041756
   261 OT CG       0.11E+00    0.1     0.00010511      -130.1836044681 -1.62E-05
   262 OT LS       0.13E+00    0.0                     -130.1836212768
   263 OT CG       0.13E+00    0.1     0.00009999      -130.1836217065 -1.72E-05
   264 OT LS       0.14E+00    0.0                     -130.1836388080
   265 OT CG       0.14E+00    0.1     0.00010046      -130.1836389093 -1.72E-05
   266 OT LS       0.11E+00    0.0                     -130.1836511168
   267 OT CG       0.11E+00    0.1     0.00010349      -130.1836522346 -1.33E-05
   268 OT LS       0.11E+00    0.0                     -130.1836669934
   269 OT CG       0.11E+00    0.1     0.00009645      -130.1836670302 -1.48E-05
   270 OT LS       0.14E+00    0.0                     -130.1836821442
   271 OT CG       0.14E+00    0.1     0.00008890      -130.1836826071 -1.56E-05
   272 OT LS       0.13E+00    0.0                     -130.1836953524
   273 OT CG       0.13E+00    0.1     0.00009714      -130.1836953721 -1.28E-05
   274 OT LS       0.10E+00    0.0                     -130.1837058067
   275 OT CG       0.10E+00    0.1     0.00009275      -130.1837069254 -1.16E-05
   276 OT LS       0.14E+00    0.0                     -130.1837204906
   277 OT CG       0.14E+00    0.1     0.00009303      -130.1837216947 -1.48E-05
   278 OT LS       0.15E+00    0.0                     -130.1837373050
   279 OT CG       0.15E+00    0.1     0.00010190      -130.1837373590 -1.57E-05
   280 OT LS       0.11E+00    0.0                     -130.1837501045
   281 OT CG       0.11E+00    0.1     0.00010600      -130.1837516722 -1.43E-05
   282 OT LS       0.12E+00    0.0                     -130.1837678497
   283 OT CG       0.12E+00    0.1     0.00010613      -130.1837678725 -1.62E-05
   284 OT LS       0.14E+00    0.0                     -130.1837860891
   285 OT CG       0.14E+00    0.1     0.00010521      -130.1837865111 -1.86E-05
   286 OT LS       0.13E+00    0.0                     -130.1838043196
   287 OT CG       0.13E+00    0.1     0.00011371      -130.1838043616 -1.79E-05
   288 OT LS       0.97E-01    0.0                     -130.1838180980
   289 OT CG       0.97E-01    0.1     0.00010860      -130.1838199804 -1.56E-05
   290 OT LS       0.15E+00    0.0                     -130.1838387344
   291 OT CG       0.15E+00    0.1     0.00011768      -130.1838411545 -2.12E-05
   292 OT LS       0.13E+00    0.0                     -130.1838624720
   293 OT CG       0.13E+00    0.1     0.00013007      -130.1838628135 -2.17E-05
   294 OT LS       0.97E-01    0.0                     -130.1838809581
   295 OT CG       0.97E-01    0.1     0.00011786      -130.1838832828 -2.05E-05
   296 OT LS       0.13E+00    0.0                     -130.1839039830
   297 OT CG       0.13E+00    0.1     0.00011950      -130.1839052884 -2.20E-05
   298 OT LS       0.12E+00    0.0                     -130.1839263805
   299 OT CG       0.12E+00    0.1     0.00012002      -130.1839264318 -2.11E-05
   300 OT LS       0.95E-01    0.0                     -130.1839417873
   301 OT CG       0.95E-01    0.1     0.00011239      -130.1839432683 -1.68E-05
   302 OT LS       0.12E+00    0.0                     -130.1839609926
   303 OT CG       0.12E+00    0.1     0.00010272      -130.1839618029 -1.85E-05
   304 OT LS       0.14E+00    0.0                     -130.1839794108
   305 OT CG       0.14E+00    0.1     0.00011062      -130.1839797263 -1.79E-05
   306 OT LS       0.10E+00    0.0                     -130.1839929160
   307 OT CG       0.10E+00    0.1     0.00011511      -130.1839949272 -1.52E-05
   308 OT LS       0.12E+00    0.0                     -130.1840135806
   309 OT CG       0.12E+00    0.1     0.00010573      -130.1840139272 -1.90E-05
   310 OT LS       0.14E+00    0.0                     -130.1840323108
   311 OT CG       0.14E+00    0.1     0.00010860      -130.1840326773 -1.88E-05
   312 OT LS       0.11E+00    0.0                     -130.1840482599
   313 OT CG       0.11E+00    0.1     0.00011780      -130.1840489636 -1.63E-05
   314 OT LS       0.11E+00    0.0                     -130.1840672970
   315 OT CG       0.11E+00    0.1     0.00011083      -130.1840673323 -1.84E-05
   316 OT LS       0.14E+00    0.0                     -130.1840873804
   317 OT CG       0.14E+00    0.1     0.00011656      -130.1840884838 -2.12E-05
   318 OT LS       0.12E+00    0.0                     -130.1841082112
   319 OT CG       0.12E+00    0.1     0.00012299      -130.1841086746 -2.02E-05
   320 OT LS       0.10E+00    0.0                     -130.1841269231
   321 OT CG       0.10E+00    0.1     0.00011951      -130.1841276405 -1.90E-05
   322 OT LS       0.13E+00    0.0                     -130.1841490042
   323 OT CG       0.13E+00    0.1     0.00011337      -130.1841497899 -2.21E-05
   324 OT LS       0.14E+00    0.0                     -130.1841711857
   325 OT CG       0.14E+00    0.1     0.00011733      -130.1841713635 -2.16E-05
   326 OT LS       0.97E-01    0.0                     -130.1841851935
   327 OT CG       0.97E-01    0.1     0.00011600      -130.1841880301 -1.67E-05
   328 OT LS       0.12E+00    0.0                     -130.1842069170
   329 OT CG       0.12E+00    0.1     0.00010373      -130.1842074357 -1.94E-05
   330 OT LS       0.13E+00    0.0                     -130.1842247610
   331 OT CG       0.13E+00    0.1     0.00010612      -130.1842250855 -1.76E-05
   332 OT LS       0.10E+00    0.0                     -130.1842375993
   333 OT CG       0.10E+00    0.1     0.00010597      -130.1842391769 -1.41E-05
   334 OT LS       0.10E+00    0.0                     -130.1842533165
   335 OT CG       0.10E+00    0.1     0.00008888      -130.1842533184 -1.41E-05
   336 OT LS       0.15E+00    0.0                     -130.1842662329
   337 OT CG       0.15E+00    0.1     0.00009584      -130.1842675782 -1.43E-05
   338 OT LS       0.92E-01    0.0                     -130.1842743150
   339 OT CG       0.92E-01    0.1     0.00009379      -130.1842780401 -1.05E-05
   340 OT LS       0.12E+00    0.0                     -130.1842901390
   341 OT CG       0.12E+00    0.1     0.00008601      -130.1842907160 -1.27E-05
   342 OT LS       0.14E+00    0.0                     -130.1843029678
   343 OT CG       0.14E+00    0.1     0.00009543      -130.1843032579 -1.25E-05
   344 OT LS       0.10E+00    0.0                     -130.1843131246
   345 OT CG       0.10E+00    0.1     0.00009662      -130.1843146195 -1.14E-05
   346 OT LS       0.12E+00    0.0                     -130.1843278843
   347 OT CG       0.12E+00    0.1     0.00009619      -130.1843281503 -1.35E-05
   348 OT LS       0.13E+00    0.0                     -130.1843425449
   349 OT CG       0.13E+00    0.1     0.00009742      -130.1843426185 -1.45E-05
   350 OT LS       0.11E+00    0.0                     -130.1843558055
   351 OT CG       0.11E+00    0.1     0.00010512      -130.1843559637 -1.33E-05
   352 OT LS       0.99E-01    0.0                     -130.1843690586
   353 OT CG       0.99E-01    0.1     0.00009396      -130.1843693991 -1.34E-05
   354 OT LS       0.14E+00    0.0                     -130.1843830412
   355 OT CG       0.14E+00    0.1     0.00009437      -130.1843841164 -1.47E-05
   356 OT LS       0.12E+00    0.0                     -130.1843964156
   357 OT CG       0.12E+00    0.1     0.00009989      -130.1843967897 -1.27E-05
   358 OT LS       0.98E-01    0.0                     -130.1844083338
   359 OT CG       0.98E-01    0.1     0.00009380      -130.1844087480 -1.20E-05
   360 OT LS       0.13E+00    0.0                     -130.1844221187
   361 OT CG       0.13E+00    0.1     0.00009079      -130.1844231743 -1.44E-05
   362 OT LS       0.12E+00    0.0                     -130.1844357069
   363 OT CG       0.12E+00    0.1     0.00009913      -130.1844357854 -1.26E-05
   364 OT LS       0.96E-01    0.0                     -130.1844463377
   365 OT CG       0.96E-01    0.1     0.00009465      -130.1844473404 -1.16E-05
   366 OT LS       0.13E+00    0.0                     -130.1844605266
   367 OT CG       0.13E+00    0.1     0.00008772      -130.1844614793 -1.41E-05
   368 OT LS       0.13E+00    0.0                     -130.1844739688
   369 OT CG       0.13E+00    0.1     0.00009803      -130.1844739722 -1.25E-05
   370 OT LS       0.94E-01    0.0                     -130.1844834587
   371 OT CG       0.94E-01    0.1     0.00009337      -130.1844851411 -1.12E-05
   372 OT LS       0.12E+00    0.0                     -130.1844977040
   373 OT CG       0.12E+00    0.1     0.00009065      -130.1844985435 -1.34E-05
   374 OT LS       0.13E+00    0.0                     -130.1845118877
   375 OT CG       0.13E+00    0.1     0.00009968      -130.1845119231 -1.34E-05
   376 OT LS       0.94E-01    0.0                     -130.1845216558
   377 OT CG       0.94E-01    0.1     0.00009605      -130.1845234922 -1.16E-05
   378 OT LS       0.13E+00    0.0                     -130.1845368337
   379 OT CG       0.13E+00    0.1     0.00009231      -130.1845377405 -1.42E-05
   380 OT LS       0.13E+00    0.0                     -130.1845511813
   381 OT CG       0.13E+00    0.1     0.00010225      -130.1845511860 -1.34E-05
   382 OT LS       0.91E-01    0.0                     -130.1845609450
   383 OT CG       0.91E-01    0.1     0.00009343      -130.1845629062 -1.17E-05
   384 OT LS       0.13E+00    0.0                     -130.1845753261
   385 OT CG       0.13E+00    0.1     0.00009002      -130.1845763769 -1.35E-05
   386 OT LS       0.12E+00    0.0                     -130.1845886098
   387 OT CG       0.12E+00    0.1     0.00009533      -130.1845886204 -1.22E-05
   388 OT LS       0.93E-01    0.0                     -130.1845979167
   389 OT CG       0.93E-01    0.1     0.00008880      -130.1845989682 -1.03E-05
   390 OT LS       0.12E+00    0.0                     -130.1846098152
   391 OT CG       0.12E+00    0.1     0.00008247      -130.1846103496 -1.14E-05
   392 OT LS       0.11E+00    0.0                     -130.1846198530
   393 OT CG       0.11E+00    0.1     0.00007998      -130.1846198656 -9.52E-06
   394 OT LS       0.89E-01    0.0                     -130.1846263872
   395 OT CG       0.89E-01    0.1     0.00007259      -130.1846268944 -7.03E-06
   396 OT LS       0.11E+00    0.0                     -130.1846338779
   397 OT CG       0.11E+00    0.1     0.00006579      -130.1846342016 -7.31E-06
   398 OT LS       0.11E+00    0.0                     -130.1846401472
   399 OT CG       0.11E+00    0.1     0.00006535      -130.1846401476 -5.95E-06
   400 OT LS       0.88E-01    0.0                     -130.1846444509
   401 OT CG       0.88E-01    0.1     0.00005818      -130.1846447823 -4.63E-06
   402 OT LS       0.11E+00    0.0                     -130.1846493010
   403 OT CG       0.11E+00    0.1     0.00005280      -130.1846495564 -4.77E-06
   404 OT LS       0.11E+00    0.0                     -130.1846534717
   405 OT CG       0.11E+00    0.1     0.00005500      -130.1846534718 -3.92E-06
   406 OT LS       0.88E-01    0.0                     -130.1846564267
   407 OT CG       0.88E-01    0.1     0.00004846      -130.1846567282 -3.26E-06
   408 OT LS       0.12E+00    0.0                     -130.1846599934
   409 OT CG       0.12E+00    0.1     0.00004610      -130.1846602965 -3.57E-06
   410 OT LS       0.11E+00    0.0                     -130.1846631526
   411 OT CG       0.11E+00    0.1     0.00004837      -130.1846631920 -2.90E-06
   412 OT LS       0.93E-01    0.0                     -130.1846657727
   413 OT CG       0.93E-01    0.1     0.00004424      -130.1846658686 -2.68E-06
   414 OT LS       0.13E+00    0.0                     -130.1846686995
   415 OT CG       0.13E+00    0.1     0.00004356      -130.1846689119 -3.04E-06
   416 OT LS       0.11E+00    0.0                     -130.1846715420
   417 OT CG       0.11E+00    0.1     0.00004777      -130.1846715734 -2.66E-06
   418 OT LS       0.93E-01    0.0                     -130.1846740304
   419 OT CG       0.93E-01    0.1     0.00004210      -130.1846741702 -2.60E-06
   420 OT LS       0.13E+00    0.0                     -130.1846768182
   421 OT CG       0.13E+00    0.1     0.00004269      -130.1846771047 -2.93E-06
   422 OT LS       0.10E+00    0.0                     -130.1846790672
   423 OT CG       0.10E+00    0.1     0.00004377      -130.1846793395 -2.23E-06
   424 OT LS       0.97E-01    0.0                     -130.1846816166
   425 OT CG       0.97E-01    0.1     0.00003780      -130.1846816189 -2.28E-06
   426 OT LS       0.13E+00    0.0                     -130.1846837748
   427 OT CG       0.13E+00    0.1     0.00003853      -130.1846839410 -2.32E-06
   428 OT LS       0.94E-01    0.0                     -130.1846853543
   429 OT CG       0.94E-01    0.1     0.00003833      -130.1846856464 -1.71E-06
   430 OT LS       0.11E+00    0.0                     -130.1846875354
   431 OT CG       0.11E+00    0.1     0.00003398      -130.1846875622 -1.92E-06
   432 OT LS       0.13E+00    0.0                     -130.1846893431
   433 OT CG       0.13E+00    0.1     0.00003645      -130.1846894046 -1.84E-06
   434 OT LS       0.92E-01    0.0                     -130.1846906561
   435 OT CG       0.92E-01    0.1     0.00003484      -130.1846909072 -1.50E-06
   436 OT LS       0.11E+00    0.0                     -130.1846925544
   437 OT CG       0.11E+00    0.1     0.00003331      -130.1846926220 -1.71E-06
   438 OT LS       0.12E+00    0.1                     -130.1846942201
   439 OT CG       0.12E+00    0.1     0.00003368      -130.1846942206 -1.60E-06
   440 OT LS       0.99E-01    0.1                     -130.1846955615
   441 OT CG       0.99E-01    0.1     0.00003332      -130.1846956052 -1.38E-06
   442 OT LS       0.10E+00    0.0                     -130.1846970137
   443 OT CG       0.10E+00    0.1     0.00003036      -130.1846970159 -1.41E-06
   444 OT LS       0.13E+00    0.1                     -130.1846983979
   445 OT CG       0.13E+00    0.1     0.00003039      -130.1846984434 -1.43E-06
   446 OT LS       0.95E-01    0.0                     -130.1846994102
   447 OT CG       0.95E-01    0.1     0.00003086      -130.1846995228 -1.08E-06
   448 OT LS       0.11E+00    0.0                     -130.1847007790
   449 OT CG       0.11E+00    0.1     0.00002725      -130.1847007999 -1.28E-06
   450 OT LS       0.13E+00    0.0                     -130.1847019722
   451 OT CG       0.13E+00    0.2     0.00002974      -130.1847020098 -1.21E-06
   452 OT LS       0.87E-01    0.0                     -130.1847027063
   453 OT CG       0.87E-01    0.1     0.00002784      -130.1847029591 -9.49E-07
   454 OT LS       0.12E+00    0.0                     -130.1847040344
   455 OT CG       0.12E+00    0.1     0.00002603      -130.1847041342 -1.18E-06
   456 OT LS       0.12E+00    0.0                     -130.1847051344
   457 OT CG       0.12E+00    0.1     0.00002806      -130.1847051352 -1.00E-06
   458 OT LS       0.89E-01    0.1                     -130.1847058950
   459 OT CG       0.89E-01    0.1     0.00002564      -130.1847059982 -8.63E-07
   460 OT LS       0.13E+00    0.1                     -130.1847069292
   461 OT CG       0.13E+00    0.1     0.00002442      -130.1847070158 -1.02E-06
   462 OT LS       0.11E+00    0.0                     -130.1847078369
   463 OT CG       0.11E+00    0.1     0.00002596      -130.1847078472 -8.31E-07
   464 OT LS       0.91E-01    0.0                     -130.1847085507
   465 OT CG       0.91E-01    0.1     0.00002329      -130.1847085977 -7.51E-07
   466 OT LS       0.13E+00    0.2                     -130.1847093798
   467 OT CG       0.13E+00    0.1     0.00002262      -130.1847094541 -8.56E-07
   468 OT LS       0.11E+00    0.0                     -130.1847100976
   469 OT CG       0.11E+00    0.1     0.00002374      -130.1847101253 -6.71E-07
   470 OT LS       0.95E-01    0.0                     -130.1847107714
   471 OT CG       0.95E-01    0.1     0.00002111      -130.1847107819 -6.57E-07
   472 OT LS       0.12E+00    0.0                     -130.1847114249
   473 OT CG       0.12E+00    0.1     0.00002052      -130.1847114638 -6.82E-07
   474 OT LS       0.10E+00    0.0                     -130.1847119682
   475 OT CG       0.10E+00    0.1     0.00002084      -130.1847119931 -5.29E-07
   476 OT LS       0.96E-01    0.0                     -130.1847125027
   477 OT CG       0.96E-01    0.1     0.00001838      -130.1847125050 -5.12E-07
   478 OT LS       0.12E+00    0.0                     -130.1847129867
   479 OT CG       0.12E+00    0.1     0.00001805      -130.1847130089 -5.04E-07
   480 OT LS       0.10E+00    0.0                     -130.1847134140
   481 OT CG       0.10E+00    0.1     0.00001826      -130.1847134256 -4.17E-07
   482 OT LS       0.97E-01    0.1                     -130.1847138219
   483 OT CG       0.97E-01    0.1     0.00001677      -130.1847138239 -3.98E-07
   484 OT LS       0.12E+00    0.1                     -130.1847142286
   485 OT CG       0.12E+00    0.2     0.00001619      -130.1847142464 -4.23E-07
   486 OT LS       0.11E+00    0.1                     -130.1847145934
   487 OT CG       0.11E+00    0.1     0.00001741      -130.1847145984 -3.52E-07
   488 OT LS       0.96E-01    0.0                     -130.1847149484
   489 OT CG       0.96E-01    0.1     0.00001551      -130.1847149554 -3.57E-07
   490 OT LS       0.13E+00    0.0                     -130.1847153128
   491 OT CG       0.13E+00    0.2     0.00001534      -130.1847153388 -3.83E-07
   492 OT LS       0.10E+00    0.0                     -130.1847156155
   493 OT CG       0.10E+00    0.1     0.00001649      -130.1847156360 -2.97E-07
   494 OT LS       0.10E+00    0.0                     -130.1847159802
   495 OT CG       0.10E+00    0.1     0.00001451      -130.1847159802 -3.44E-07
   496 OT LS       0.13E+00    0.0                     -130.1847162999
   497 OT CG       0.13E+00    0.1     0.00001504      -130.1847163130 -3.33E-07
   498 OT LS       0.10E+00    0.0                     -130.1847165704
   499 OT CG       0.10E+00    0.1     0.00001576      -130.1847165923 -2.79E-07
   500 OT LS       0.11E+00    0.1                     -130.1847169130
   501 OT CG       0.11E+00    0.1     0.00001393      -130.1847169137 -3.21E-07
   502 OT LS       0.14E+00    0.0                     -130.1847172248
   503 OT CG       0.14E+00    0.2     0.00001548      -130.1847172436 -3.30E-07
   504 OT LS       0.91E-01    0.1                     -130.1847174378
   505 OT CG       0.91E-01    0.1     0.00001509      -130.1847175109 -2.67E-07
   506 OT LS       0.12E+00    0.0                     -130.1847178294
   507 OT CG       0.12E+00    0.1     0.00001438      -130.1847178513 -3.40E-07
   508 OT LS       0.12E+00    0.1                     -130.1847181614
   509 OT CG       0.12E+00    0.2     0.00001550      -130.1847181614 -3.10E-07
   510 OT LS       0.97E-01    0.1                     -130.1847184311
   511 OT CG       0.97E-01    0.1     0.00001532      -130.1847184491 -2.88E-07
   512 OT LS       0.11E+00    0.1                     -130.1847187727
   513 OT CG       0.11E+00    0.2     0.00001439      -130.1847187803 -3.31E-07
   514 OT LS       0.12E+00    0.1                     -130.1847190925
   515 OT CG       0.12E+00    0.1     0.00001531      -130.1847190939 -3.14E-07
   516 OT LS       0.94E-01    0.0                     -130.1847193382
   517 OT CG       0.94E-01    0.1     0.00001493      -130.1847193644 -2.71E-07
   518 OT LS       0.12E+00    0.0                     -130.1847196753
   519 OT CG       0.12E+00    0.1     0.00001392      -130.1847196896 -3.25E-07
   520 OT LS       0.12E+00    0.0                     -130.1847199764
   521 OT CG       0.12E+00    0.1     0.00001517      -130.1847199764 -2.87E-07
   522 OT LS       0.95E-01    0.0                     -130.1847202248
   523 OT CG       0.95E-01    0.1     0.00001443      -130.1847202444 -2.68E-07
   524 OT LS       0.12E+00    0.1                     -130.1847205371
   525 OT CG       0.12E+00    0.1     0.00001385      -130.1847205505 -3.06E-07
   526 OT LS       0.12E+00    0.1                     -130.1847208295
   527 OT CG       0.12E+00    0.1     0.00001488      -130.1847208295 -2.79E-07
   528 OT LS       0.94E-01    0.0                     -130.1847210675
   529 OT CG       0.94E-01    0.1     0.00001403      -130.1847210847 -2.55E-07
   530 OT LS       0.12E+00    0.0                     -130.1847213639
   531 OT CG       0.12E+00    0.1     0.00001367      -130.1847213799 -2.95E-07
   532 OT LS       0.12E+00    0.0                     -130.1847216478
   533 OT CG       0.12E+00    0.1     0.00001476      -130.1847216484 -2.69E-07
   534 OT LS       0.95E-01    0.0                     -130.1847218892
   535 OT CG       0.95E-01    0.1     0.00001394      -130.1847219028 -2.54E-07
   536 OT LS       0.12E+00    0.0                     -130.1847221815
   537 OT CG       0.12E+00    0.1     0.00001376      -130.1847221973 -2.95E-07
   538 OT LS       0.12E+00    0.1                     -130.1847224727
   539 OT CG       0.12E+00    0.1     0.00001519      -130.1847224731 -2.76E-07
   540 OT LS       0.91E-01    0.1                     -130.1847227103
   541 OT CG       0.91E-01    0.1     0.00001374      -130.1847227330 -2.60E-07
   542 OT LS       0.13E+00    0.0                     -130.1847230109
   543 OT CG       0.13E+00    0.2     0.00001387      -130.1847230402 -3.07E-07
   544 OT LS       0.11E+00    0.0                     -130.1847232863
   545 OT CG       0.11E+00    0.1     0.00001523      -130.1847232980 -2.58E-07
   546 OT LS       0.93E-01    0.0                     -130.1847235560
   547 OT CG       0.93E-01    0.1     0.00001280      -130.1847235639 -2.66E-07
   548 OT LS       0.14E+00    0.0                     -130.1847238141
   549 OT CG       0.14E+00    0.1     0.00001379      -130.1847238453 -2.81E-07
   550 OT LS       0.93E-01    0.1                     -130.1847240072
   551 OT CG       0.93E-01    0.1     0.00001362      -130.1847240621 -2.17E-07
   552 OT LS       0.11E+00    0.0                     -130.1847243023
   553 OT CG       0.11E+00    0.1     0.00001241      -130.1847243067 -2.45E-07
   554 OT LS       0.13E+00    0.1                     -130.1847245454
   555 OT CG       0.13E+00    0.1     0.00001324      -130.1847245529 -2.46E-07
   556 OT LS       0.94E-01    0.1                     -130.1847247243
   557 OT CG       0.94E-01    0.1     0.00001302      -130.1847247546 -2.02E-07
   558 OT LS       0.11E+00    0.0                     -130.1847249837
   559 OT CG       0.11E+00    0.2     0.00001226      -130.1847249908 -2.36E-07
   560 OT LS       0.12E+00    0.1                     -130.1847252182
   561 OT CG       0.12E+00    0.1     0.00001300      -130.1847252199 -2.29E-07
   562 OT LS       0.95E-01    0.0                     -130.1847253989
   563 OT CG       0.95E-01    0.1     0.00001265      -130.1847254173 -1.97E-07
   564 OT LS       0.11E+00    0.1                     -130.1847256325
   565 OT CG       0.11E+00    0.1     0.00001190      -130.1847256376 -2.20E-07
   566 OT LS       0.12E+00    0.0                     -130.1847258486
   567 OT CG       0.12E+00    0.1     0.00001251      -130.1847258500 -2.12E-07
   568 OT LS       0.96E-01    0.1                     -130.1847260212
   569 OT CG       0.96E-01    0.1     0.00001232      -130.1847260346 -1.85E-07
   570 OT LS       0.11E+00    0.1                     -130.1847262403
   571 OT CG       0.11E+00    0.1     0.00001165      -130.1847262449 -2.10E-07
   572 OT LS       0.13E+00    0.0                     -130.1847264559
   573 OT CG       0.13E+00    0.1     0.00001277      -130.1847264592 -2.14E-07
   574 OT LS       0.94E-01    0.1                     -130.1847266231
   575 OT CG       0.94E-01    0.1     0.00001257      -130.1847266482 -1.89E-07
   576 OT LS       0.12E+00    0.1                     -130.1847268712
   577 OT CG       0.12E+00    0.1     0.00001222      -130.1847268825 -2.34E-07
   578 OT LS       0.13E+00    0.1                     -130.1847271159
   579 OT CG       0.13E+00    0.1     0.00001365      -130.1847271165 -2.34E-07
   580 OT LS       0.91E-01    0.1                     -130.1847272904
   581 OT CG       0.91E-01    0.1     0.00001283      -130.1847273246 -2.08E-07
   582 OT LS       0.13E+00    0.1                     -130.1847275616
   583 OT CG       0.13E+00    0.1     0.00001279      -130.1847275836 -2.59E-07
   584 OT LS       0.12E+00    0.1                     -130.1847278275
   585 OT CG       0.12E+00    0.1     0.00001427      -130.1847278282 -2.45E-07
   586 OT LS       0.90E-01    0.1                     -130.1847280248
   587 OT CG       0.90E-01    0.1     0.00001301      -130.1847280530 -2.25E-07
   588 OT LS       0.14E+00    0.1                     -130.1847283060
   589 OT CG       0.14E+00    0.1     0.00001322      -130.1847283423 -2.89E-07
   590 OT LS       0.11E+00    0.1                     -130.1847285525
   591 OT CG       0.11E+00    0.1     0.00001447      -130.1847285728 -2.30E-07
   592 OT LS       0.98E-01    0.1                     -130.1847288216
   593 OT CG       0.98E-01    0.1     0.00001281      -130.1847288241 -2.51E-07
   594 OT LS       0.14E+00    0.1                     -130.1847290760
   595 OT CG       0.14E+00    0.1     0.00001366      -130.1847290974 -2.73E-07
   596 OT LS       0.10E+00    0.1                     -130.1847292971
   597 OT CG       0.10E+00    0.1     0.00001420      -130.1847293263 -2.29E-07
   598 OT LS       0.11E+00    0.1                     -130.1847295900
   599 OT CG       0.11E+00    0.1     0.00001310      -130.1847295911 -2.65E-07
   600 OT LS       0.13E+00    0.1                     -130.1847298542
   601 OT CG       0.13E+00    0.1     0.00001408      -130.1847298618 -2.71E-07
   602 OT LS       0.10E+00    0.1                     -130.1847300902
   603 OT CG       0.10E+00    0.1     0.00001442      -130.1847301081 -2.46E-07
   604 OT LS       0.11E+00    0.1                     -130.1847303862
   605 OT CG       0.11E+00    0.1     0.00001391      -130.1847303878 -2.80E-07
   606 OT LS       0.12E+00    0.1                     -130.1847306775
   607 OT CG       0.12E+00    0.2     0.00001442      -130.1847306813 -2.94E-07
   608 OT LS       0.11E+00    0.1                     -130.1847309482
   609 OT CG       0.11E+00    0.1     0.00001537      -130.1847309548 -2.73E-07
   610 OT LS       0.10E+00    0.1                     -130.1847312475
   611 OT CG       0.10E+00    0.1     0.00001389      -130.1847312485 -2.94E-07
   612 OT LS       0.13E+00    0.1                     -130.1847315465
   613 OT CG       0.13E+00    0.1     0.00001475      -130.1847315653 -3.17E-07
   614 OT LS       0.93E-01    0.1                     -130.1847317673
   615 OT CG       0.93E-01    0.1     0.00001477      -130.1847318143 -2.49E-07
   616 OT LS       0.11E+00    0.1                     -130.1847321040
   617 OT CG       0.11E+00    0.1     0.00001305      -130.1847321116 -2.97E-07
   618 OT LS       0.13E+00    0.1                     -130.1847323745
   619 OT CG       0.13E+00    0.1     0.00001430      -130.1847323790 -2.67E-07
   620 OT LS       0.87E-01    0.1                     -130.1847325514
   621 OT CG       0.87E-01    0.1     0.00001304      -130.1847325982 -2.19E-07
   622 OT LS       0.12E+00    0.1                     -130.1847328282
   623 OT CG       0.12E+00    0.2     0.00001214      -130.1847328450 -2.47E-07
   624 OT LS       0.12E+00    0.1                     -130.1847330571
   625 OT CG       0.12E+00    0.1     0.00001287      -130.1847330571 -2.12E-07
   626 OT LS       0.91E-01    0.1                     -130.1847332268
   627 OT CG       0.91E-01    0.1     0.00001192      -130.1847332420 -1.85E-07
   628 OT LS       0.12E+00    0.1                     -130.1847334410
   629 OT CG       0.12E+00    0.1     0.00001136      -130.1847334547 -2.13E-07
   630 OT LS       0.12E+00    0.1                     -130.1847336366
   631 OT CG       0.12E+00    0.2     0.00001225      -130.1847336372 -1.82E-07
   632 OT LS       0.90E-01    0.1                     -130.1847337897
   633 OT CG       0.90E-01    0.1     0.00001084      -130.1847338028 -1.66E-07
   634 OT LS       0.13E+00    0.1                     -130.1847339703
   635 OT CG       0.13E+00    0.2     0.00001062      -130.1847339859 -1.83E-07
   636 OT LS       0.11E+00    0.1                     -130.1847341261
   637 OT CG       0.11E+00    0.2     0.00001104      -130.1847341321 -1.46E-07
   638 OT LS       0.94E-01    0.1                     -130.1847342703
   639 OT CG       0.94E-01    0.2     0.00000980      -130.1847342725 -1.40E-07
   640 OT LS       0.13E+00    0.1                     -130.1847344112
   641 OT CG       0.13E+00    0.2     0.00000963      -130.1847344207 -1.48E-07
   642 OT LS       0.10E+00    0.1                     -130.1847345298
   643 OT CG       0.10E+00    0.2     0.00000986      -130.1847345364 -1.16E-07
   644 OT LS       0.97E-01    0.1                     -130.1847346522
   645 OT CG       0.97E-01    0.2     0.00000877      -130.1847346524 -1.16E-07
   646 OT LS       0.12E+00    0.1                     -130.1847347643
   647 OT CG       0.12E+00    0.2     0.00000871      -130.1847347700 -1.18E-07
   648 OT LS       0.98E-01    0.1                     -130.1847348543
   649 OT CG       0.98E-01    0.2     0.00000865      -130.1847348611 -9.12E-08
   650 OT LS       0.10E+00    0.1                     -130.1847349536
   651 OT CG       0.10E+00    0.2     0.00000791      -130.1847349537 -9.25E-08
   652 OT LS       0.12E+00    0.1                     -130.1847350448
   653 OT CG       0.12E+00    0.2     0.00000781      -130.1847350479 -9.42E-08
   654 OT LS       0.99E-01    0.1                     -130.1847351184
   655 OT CG       0.99E-01    0.2     0.00000799      -130.1847351224 -7.46E-08
   656 OT LS       0.10E+00    0.1                     -130.1847352029
   657 OT CG       0.10E+00    0.2     0.00000728      -130.1847352029 -8.05E-08
   658 OT LS       0.13E+00    0.1                     -130.1847352829
   659 OT CG       0.13E+00    0.2     0.00000743      -130.1847352861 -8.31E-08
   660 OT LS       0.96E-01    0.1                     -130.1847353441
   661 OT CG       0.96E-01    0.2     0.00000750      -130.1847353512 -6.51E-08
   662 OT LS       0.11E+00    0.1                     -130.1847354237
   663 OT CG       0.11E+00    0.2     0.00000676      -130.1847354243 -7.31E-08
   664 OT LS       0.13E+00    0.1                     -130.1847354956
   665 OT CG       0.13E+00    0.2     0.00000730      -130.1847354985 -7.41E-08
   666 OT LS       0.90E-01    0.1                     -130.1847355453
   667 OT CG       0.90E-01    0.2     0.00000705      -130.1847355578 -5.93E-08
   668 OT LS       0.12E+00    0.1                     -130.1847356256
   669 OT CG       0.12E+00    0.2     0.00000665      -130.1847356293 -7.15E-08
   670 OT LS       0.12E+00    0.1                     -130.1847356957
   671 OT CG       0.12E+00    0.2     0.00000707      -130.1847356958 -6.66E-08
   672 OT LS       0.90E-01    0.1                     -130.1847357440
   673 OT CG       0.90E-01    0.2     0.00000666      -130.1847357512 -5.53E-08
   674 OT LS       0.12E+00    0.1                     -130.1847358119
   675 OT CG       0.12E+00    0.2     0.00000610      -130.1847358155 -6.44E-08
   676 OT LS       0.12E+00    0.1                     -130.1847358687
   677 OT CG       0.12E+00    0.2     0.00000654      -130.1847358687 -5.32E-08
   678 OT LS       0.90E-01    0.1                     -130.1847359123
   679 OT CG       0.90E-01    0.2     0.00000596      -130.1847359161 -4.75E-08
   680 OT LS       0.12E+00    0.1                     -130.1847359658
   681 OT CG       0.12E+00    0.2     0.00000555      -130.1847359693 -5.32E-08
   682 OT LS       0.11E+00    0.1                     -130.1847360112
   683 OT CG       0.11E+00    0.2     0.00000604      -130.1847360116 -4.23E-08
   684 OT LS       0.92E-01    0.1                     -130.1847360511
   685 OT CG       0.92E-01    0.2     0.00000523      -130.1847360529 -4.13E-08
   686 OT LS       0.12E+00    0.1                     -130.1847360914
   687 OT CG       0.12E+00    0.2     0.00000507      -130.1847360937 -4.08E-08
   688 OT LS       0.10E+00    0.1                     -130.1847361256
   689 OT CG       0.10E+00    0.2     0.00000519      -130.1847361266 -3.28E-08
   690 OT LS       0.95E-01    0.1                     -130.1847361578
   691 OT CG       0.95E-01    0.2     0.00000458      -130.1847361581 -3.15E-08
   692 OT LS       0.12E+00    0.1                     -130.1847361877
   693 OT CG       0.12E+00    0.2     0.00000450      -130.1847361890 -3.09E-08
   694 OT LS       0.10E+00    0.1                     -130.1847362143
   695 OT CG       0.10E+00    0.2     0.00000456      -130.1847362149 -2.59E-08
   696 OT LS       0.97E-01    0.1                     -130.1847362395
   697 OT CG       0.97E-01    0.2     0.00000421      -130.1847362396 -2.48E-08
   698 OT LS       0.12E+00    0.1                     -130.1847362652
   699 OT CG       0.12E+00    0.2     0.00000411      -130.1847362664 -2.68E-08
   700 OT LS       0.11E+00    0.1                     -130.1847362881
   701 OT CG       0.11E+00    0.2     0.00000436      -130.1847362886 -2.22E-08
   702 OT LS       0.94E-01    0.1                     -130.1847363102
   703 OT CG       0.94E-01    0.2     0.00000381      -130.1847363106 -2.20E-08
   704 OT LS       0.13E+00    0.1                     -130.1847363323
   705 OT CG       0.13E+00    0.2     0.00000381      -130.1847363342 -2.36E-08
   706 OT LS       0.94E-01    0.1                     -130.1847363483
   707 OT CG       0.94E-01    0.2     0.00000390      -130.1847363510 -1.68E-08
   708 OT LS       0.11E+00    0.1                     -130.1847363705
   709 OT CG       0.11E+00    0.2     0.00000334      -130.1847363707 -1.97E-08
   710 OT LS       0.13E+00    0.1                     -130.1847363879
   711 OT CG       0.13E+00    0.2     0.00000364      -130.1847363886 -1.79E-08
   712 OT LS       0.88E-01    0.1                     -130.1847363996
   713 OT CG       0.88E-01    0.2     0.00000342      -130.1847364030 -1.44E-08
   714 OT LS       0.12E+00    0.1                     -130.1847364188
   715 OT CG       0.12E+00    0.2     0.00000313      -130.1847364198 -1.69E-08
   716 OT LS       0.12E+00    0.1                     -130.1847364342
   717 OT CG       0.12E+00    0.2     0.00000336      -130.1847364342 -1.43E-08
   718 OT LS       0.89E-01    0.1                     -130.1847364452
   719 OT CG       0.89E-01    0.2     0.00000304      -130.1847364466 -1.24E-08
   720 OT LS       0.12E+00    0.1                     -130.1847364592
   721 OT CG       0.12E+00    0.2     0.00000284      -130.1847364600 -1.34E-08
   722 OT LS       0.11E+00    0.1                     -130.1847364712
   723 OT CG       0.11E+00    0.2     0.00000300      -130.1847364712 -1.12E-08
   724 OT LS       0.91E-01    0.1                     -130.1847364807
   725 OT CG       0.91E-01    0.2     0.00000270      -130.1847364813 -1.01E-08
   726 OT LS       0.12E+00    0.1                     -130.1847364916
   727 OT CG       0.12E+00    0.2     0.00000270      -130.1847364924 -1.11E-08
   728 OT LS       0.11E+00    0.1                     -130.1847365021
   729 OT CG       0.11E+00    0.2     0.00000280      -130.1847365023 -9.90E-09
   730 OT LS       0.96E-01    0.1                     -130.1847365113
   731 OT CG       0.96E-01    0.2     0.00000265      -130.1847365115 -9.23E-09
   732 OT LS       0.12E+00    0.1                     -130.1847365214
   733 OT CG       0.12E+00    0.2     0.00000256      -130.1847365219 -1.04E-08
   734 OT LS       0.11E+00    0.1                     -130.1847365310
   735 OT CG       0.11E+00    0.2     0.00000272      -130.1847365310 -9.12E-09
   736 OT LS       0.92E-01    0.1                     -130.1847365389
   737 OT CG       0.92E-01    0.2     0.00000247      -130.1847365393 -8.34E-09
   738 OT LS       0.13E+00    0.1                     -130.1847365482
   739 OT CG       0.13E+00    0.2     0.00000242      -130.1847365490 -9.67E-09
   740 OT LS       0.11E+00    0.1                     -130.1847365562
   741 OT CG       0.11E+00    0.2     0.00000258      -130.1847365566 -7.60E-09
   742 OT LS       0.98E-01    0.1                     -130.1847365646
   743 OT CG       0.98E-01    0.2     0.00000233      -130.1847365646 -8.03E-09
   744 OT LS       0.12E+00    0.1                     -130.1847365725
   745 OT CG       0.12E+00    0.2     0.00000228      -130.1847365729 -8.23E-09
   746 OT LS       0.10E+00    0.1                     -130.1847365792
   747 OT CG       0.10E+00    0.2     0.00000241      -130.1847365795 -6.58E-09
   748 OT LS       0.98E-01    0.1                     -130.1847365864
   749 OT CG       0.98E-01    0.2     0.00000209      -130.1847365864 -6.98E-09
   750 OT LS       0.13E+00    0.1                     -130.1847365930
   751 OT CG       0.13E+00    0.2     0.00000216      -130.1847365934 -7.00E-09
   752 OT LS       0.95E-01    0.1                     -130.1847365982
   753 OT CG       0.95E-01    0.2     0.00000221      -130.1847365989 -5.47E-09
   754 OT LS       0.11E+00    0.1                     -130.1847366054
   755 OT CG       0.11E+00    0.2     0.00000200      -130.1847366055 -6.57E-09
   756 OT LS       0.13E+00    0.1                     -130.1847366117
   757 OT CG       0.13E+00    0.2     0.00000219      -130.1847366119 -6.43E-09
   758 OT LS       0.92E-01    0.1                     -130.1847366164
   759 OT CG       0.92E-01    0.2     0.00000212      -130.1847366173 -5.41E-09
   760 OT LS       0.12E+00    0.1                     -130.1847366235
   761 OT CG       0.12E+00    0.2     0.00000201      -130.1847366238 -6.53E-09
   762 OT LS       0.12E+00    0.1                     -130.1847366299
   763 OT CG       0.12E+00    0.2     0.00000218      -130.1847366299 -6.07E-09
   764 OT LS       0.93E-01    0.1                     -130.1847366348
   765 OT CG       0.93E-01    0.2     0.00000208      -130.1847366354 -5.44E-09
   766 OT LS       0.12E+00    0.1                     -130.1847366414
   767 OT CG       0.12E+00    0.2     0.00000200      -130.1847366417 -6.31E-09
   768 OT LS       0.12E+00    0.1                     -130.1847366474
   769 OT CG       0.12E+00    0.2     0.00000211      -130.1847366474 -5.76E-09
   770 OT LS       0.93E-01    0.1                     -130.1847366522
   771 OT CG       0.93E-01    0.2     0.00000198      -130.1847366525 -5.09E-09
   772 OT LS       0.12E+00    0.1                     -130.1847366579
   773 OT CG       0.12E+00    0.2     0.00000186      -130.1847366581 -5.63E-09
   774 OT LS       0.11E+00    0.1                     -130.1847366630
   775 OT CG       0.11E+00    0.2     0.00000195      -130.1847366630 -4.87E-09
   776 OT LS       0.91E-01    0.1                     -130.1847366670
   777 OT CG       0.91E-01    0.2     0.00000180      -130.1847366673 -4.24E-09
   778 OT LS       0.12E+00    0.1                     -130.1847366718
   779 OT CG       0.12E+00    0.2     0.00000173      -130.1847366722 -4.91E-09
   780 OT LS       0.12E+00    0.1                     -130.1847366764
   781 OT CG       0.12E+00    0.2     0.00000192      -130.1847366764 -4.27E-09
   782 OT LS       0.95E-01    0.1                     -130.1847366805
   783 OT CG       0.95E-01    0.2     0.00000177      -130.1847366807 -4.29E-09
   784 OT LS       0.13E+00    0.1                     -130.1847366854
   785 OT CG       0.13E+00    0.2     0.00000181      -130.1847366857 -5.01E-09
   786 OT LS       0.11E+00    0.1                     -130.1847366900
   787 OT CG       0.11E+00    0.2     0.00000193      -130.1847366901 -4.41E-09
   788 OT LS       0.96E-01    0.1                     -130.1847366945
   789 OT CG       0.96E-01    0.2     0.00000178      -130.1847366946 -4.42E-09
   790 OT LS       0.13E+00    0.1                     -130.1847366992
   791 OT CG       0.13E+00    0.2     0.00000174      -130.1847366995 -4.89E-09
   792 OT LS       0.10E+00    0.1                     -130.1847367032
   793 OT CG       0.10E+00    0.2     0.00000182      -130.1847367033 -3.87E-09
   794 OT LS       0.95E-01    0.1                     -130.1847367072
   795 OT CG       0.95E-01    0.2     0.00000160      -130.1847367072 -3.89E-09
   796 OT LS       0.13E+00    0.1                     -130.1847367110
   797 OT CG       0.13E+00    0.2     0.00000160      -130.1847367112 -4.04E-09
   798 OT LS       0.98E-01    0.1                     -130.1847367140
   799 OT CG       0.98E-01    0.2     0.00000166      -130.1847367143 -3.09E-09
   800 OT LS       0.10E+00    0.1                     -130.1847367178
   801 OT CG       0.10E+00    0.2     0.00000145      -130.1847367178 -3.43E-09
   802 OT LS       0.13E+00    0.1                     -130.1847367210
   803 OT CG       0.13E+00    0.2     0.00000154      -130.1847367212 -3.40E-09
   804 OT LS       0.91E-01    0.1                     -130.1847367233
   805 OT CG       0.91E-01    0.2     0.00000152      -130.1847367238 -2.64E-09
   806 OT LS       0.12E+00    0.1                     -130.1847367269
   807 OT CG       0.12E+00    0.2     0.00000139      -130.1847367271 -3.29E-09
   808 OT LS       0.13E+00    0.1                     -130.1847367301
   809 OT CG       0.13E+00    0.2     0.00000157      -130.1847367301 -3.02E-09
   810 OT LS       0.93E-01    0.1                     -130.1847367326
   811 OT CG       0.93E-01    0.2     0.00000148      -130.1847367329 -2.81E-09
   812 OT LS       0.12E+00    0.1                     -130.1847367360
   813 OT CG       0.12E+00    0.2     0.00000149      -130.1847367362 -3.30E-09
   814 OT LS       0.12E+00    0.1                     -130.1847367393
   815 OT CG       0.12E+00    0.2     0.00000155      -130.1847367393 -3.12E-09
   816 OT LS       0.10E+00    0.1                     -130.1847367423
   817 OT CG       0.10E+00    0.2     0.00000156      -130.1847367423 -2.99E-09
   818 OT LS       0.11E+00    0.1                     -130.1847367456
   819 OT CG       0.11E+00    0.2     0.00000144      -130.1847367456 -3.27E-09
   820 OT LS       0.13E+00    0.1                     -130.1847367488
   821 OT CG       0.13E+00    0.2     0.00000159      -130.1847367489 -3.25E-09
   822 OT LS       0.91E-01    0.1                     -130.1847367513
   823 OT CG       0.91E-01    0.2     0.00000152      -130.1847367517 -2.83E-09
   824 OT LS       0.13E+00    0.1                     -130.1847367550
   825 OT CG       0.13E+00    0.2     0.00000148      -130.1847367553 -3.60E-09
   826 OT LS       0.12E+00    0.1                     -130.1847367586
   827 OT CG       0.12E+00    0.2     0.00000170      -130.1847367586 -3.27E-09
   828 OT LS       0.96E-01    0.1                     -130.1847367617
   829 OT CG       0.96E-01    0.2     0.00000159      -130.1847367620 -3.39E-09
   830 OT LS       0.12E+00    0.1                     -130.1847367656
   831 OT CG       0.12E+00    0.2     0.00000155      -130.1847367658 -3.88E-09
   832 OT LS       0.12E+00    0.1                     -130.1847367692
   833 OT CG       0.12E+00    0.2     0.00000173      -130.1847367693 -3.43E-09
   834 OT LS       0.92E-01    0.1                     -130.1847367724
   835 OT CG       0.92E-01    0.2     0.00000153      -130.1847367727 -3.39E-09
   836 OT LS       0.14E+00    0.1                     -130.1847367761
   837 OT CG       0.14E+00    0.2     0.00000158      -130.1847367765 -3.89E-09
   838 OT LS       0.10E+00    0.1                     -130.1847367793
   839 OT CG       0.10E+00    0.2     0.00000167      -130.1847367797 -3.10E-09
   840 OT LS       0.10E+00    0.1                     -130.1847367831
   841 OT CG       0.10E+00    0.2     0.00000152      -130.1847367831 -3.49E-09
   842 OT LS       0.13E+00    0.1                     -130.1847367867
   843 OT CG       0.13E+00    0.2     0.00000161      -130.1847367870 -3.82E-09
   844 OT LS       0.96E-01    0.1                     -130.1847367895
   845 OT CG       0.96E-01    0.2     0.00000165      -130.1847367900 -3.06E-09
   846 OT LS       0.11E+00    0.1                     -130.1847367937
   847 OT CG       0.11E+00    0.2     0.00000154      -130.1847367937 -3.71E-09
   848 OT LS       0.13E+00    0.1                     -130.1847367975
   849 OT CG       0.13E+00    0.2     0.00000169      -130.1847367975 -3.81E-09
   850 OT LS       0.96E-01    0.1                     -130.1847368005
   851 OT CG       0.96E-01    0.2     0.00000168      -130.1847368009 -3.37E-09
   852 OT LS       0.12E+00    0.1                     -130.1847368049
   853 OT CG       0.12E+00    0.2     0.00000166      -130.1847368050 -4.09E-09
   854 OT LS       0.13E+00    0.1                     -130.1847368093
   855 OT CG       0.13E+00    0.2     0.00000180      -130.1847368093 -4.30E-09
   856 OT LS       0.99E-01    0.1                     -130.1847368130
   857 OT CG       0.99E-01    0.2     0.00000183      -130.1847368133 -3.98E-09
   858 OT LS       0.11E+00    0.1                     -130.1847368179
   859 OT CG       0.11E+00    0.2     0.00000175      -130.1847368180 -4.68E-09
   860 OT LS       0.12E+00    0.1                     -130.1847368226
   861 OT CG       0.12E+00    0.2     0.00000185      -130.1847368226 -4.67E-09
   862 OT LS       0.95E-01    0.1                     -130.1847368263
   863 OT CG       0.95E-01    0.2     0.00000181      -130.1847368266 -4.01E-09
   864 OT LS       0.11E+00    0.1                     -130.1847368309
   865 OT CG       0.11E+00    0.2     0.00000160      -130.1847368310 -4.35E-09
   866 OT LS       0.12E+00    0.1                     -130.1847368348
   867 OT CG       0.12E+00    0.2     0.00000169      -130.1847368349 -3.87E-09
   868 OT LS       0.87E-01    0.1                     -130.1847368374
   869 OT CG       0.87E-01    0.2     0.00000156      -130.1847368379 -3.07E-09
   870 OT LS       0.12E+00    0.1                     -130.1847368412
   871 OT CG       0.12E+00    0.2     0.00000140      -130.1847368414 -3.51E-09
   872 OT LS       0.12E+00    0.1                     -130.1847368443
   873 OT CG       0.12E+00    0.2     0.00000158      -130.1847368443 -2.90E-09
   874 OT LS       0.88E-01    0.1                     -130.1847368467
   875 OT CG       0.88E-01    0.2     0.00000136      -130.1847368470 -2.69E-09
   876 OT LS       0.13E+00    0.1                     -130.1847368497
   877 OT CG       0.13E+00    0.2     0.00000135      -130.1847368500 -2.97E-09
   878 OT LS       0.11E+00    0.1                     -130.1847368522
   879 OT CG       0.11E+00    0.2     0.00000144      -130.1847368524 -2.35E-09
   880 OT LS       0.97E-01    0.1                     -130.1847368548
   881 OT CG       0.97E-01    0.2     0.00000127      -130.1847368548 -2.47E-09
   882 OT LS       0.12E+00    0.1                     -130.1847368572
   883 OT CG       0.12E+00    0.2     0.00000129      -130.1847368573 -2.47E-09
   884 OT LS       0.10E+00    0.1                     -130.1847368593
   885 OT CG       0.10E+00    0.2     0.00000134      -130.1847368594 -2.11E-09
   886 OT LS       0.10E+00    0.1                     -130.1847368616
   887 OT CG       0.10E+00    0.2     0.00000123      -130.1847368616 -2.23E-09
   888 OT LS       0.13E+00    0.1                     -130.1847368639
   889 OT CG       0.13E+00    0.2     0.00000128      -130.1847368640 -2.40E-09
   890 OT LS       0.10E+00    0.1                     -130.1847368660
   891 OT CG       0.10E+00    0.2     0.00000135      -130.1847368661 -2.07E-09
   892 OT LS       0.10E+00    0.1                     -130.1847368685
   893 OT CG       0.10E+00    0.2     0.00000124      -130.1847368685 -2.34E-09
   894 OT LS       0.13E+00    0.1                     -130.1847368708
   895 OT CG       0.13E+00    0.2     0.00000132      -130.1847368709 -2.49E-09
   896 OT LS       0.98E-01    0.1                     -130.1847368728
   897 OT CG       0.98E-01    0.2     0.00000135      -130.1847368730 -2.11E-09
   898 OT LS       0.11E+00    0.1                     -130.1847368755
   899 OT CG       0.11E+00    0.2     0.00000125      -130.1847368755 -2.44E-09
   900 OT LS       0.13E+00    0.1                     -130.1847368779
   901 OT CG       0.13E+00    0.2     0.00000132      -130.1847368779 -2.42E-09
   902 OT LS       0.97E-01    0.1                     -130.1847368798
   903 OT CG       0.97E-01    0.2     0.00000132      -130.1847368800 -2.09E-09
   904 OT LS       0.11E+00    0.1                     -130.1847368823
   905 OT CG       0.11E+00    0.2     0.00000120      -130.1847368823 -2.30E-09
   906 OT LS       0.12E+00    0.1                     -130.1847368845
   907 OT CG       0.12E+00    0.2     0.00000127      -130.1847368845 -2.22E-09
   908 OT LS       0.94E-01    0.1                     -130.1847368862
   909 OT CG       0.94E-01    0.2     0.00000124      -130.1847368864 -1.87E-09
   910 OT LS       0.11E+00    0.1                     -130.1847368884
   911 OT CG       0.11E+00    0.2     0.00000113      -130.1847368885 -2.07E-09
   912 OT LS       0.12E+00    0.1                     -130.1847368904
   913 OT CG       0.12E+00    0.2     0.00000119      -130.1847368904 -1.92E-09
   914 OT LS       0.90E-01    0.1                     -130.1847368917
   915 OT CG       0.90E-01    0.2     0.00000112      -130.1847368920 -1.57E-09
   916 OT LS       0.11E+00    0.1                     -130.1847368937
   917 OT CG       0.11E+00    0.2     0.00000102      -130.1847368937 -1.78E-09
   918 OT LS       0.12E+00    0.1                     -130.1847368953
   919 OT CG       0.12E+00    0.2     0.00000112      -130.1847368953 -1.57E-09
   920 OT LS       0.87E-01    0.1                     -130.1847368964
[...]
     7 OT CG       0.23E+00    0.3     0.00000039      -130.2646313472 -1.68E-08
     8 OT LS       0.20E+00    0.1                     -130.2646313476
     9 OT CG       0.20E+00    0.3     0.00000010      -130.2646313476 -3.72E-10

  *** SCF run converged in     9 steps ***


  Core Hamiltonian energy:                                   -133.31940622043101
  Repulsive potential energy:                                   2.29694754902758
  Electronic energy:                                            0.63971178563633
  Dispersion energy:                                            0.11811553814789

  Total energy:                                              -130.26463134761920

 ENERGY| Total FORCE_EVAL ( QS ) energy (a.u.):             -130.264631347650521


 Number of electrons:                                                        256
 Number of occupied orbitals:                                                128
 Number of molecular orbitals:                                               128

 Number of orbital functions:                                                192
 Number of independent orbital functions:                                    192

 Extrapolation method: ASPC


 SCF WAVEFUNCTION OPTIMIZATION

  ----------------------------------- OT ---------------------------------------
  Minimizer      : CG                  : conjugate gradient
  Preconditioner : FULL_SINGLE_INVERSE : inversion of 
                                         H + eS - 2*(Sc)(c^T*H*c+const)(Sc)^T
  Precond_solver : DEFAULT
  Line search    : 2PNT                : 2 energies, one gradient
  stepsize       :    0.08000000                  energy_gap     :    0.08000000
  eps_taylor     :   0.10000E-15                  max_taylor     :             4
  ----------------------------------- OT ---------------------------------------

  Step     Update method      Time    Convergence         Total energy    Change
  ------------------------------------------------------------------------------
     1 OT CG       0.80E-01    0.4     0.00005924      -130.2611254340 -1.30E+02
     2 OT LS       0.25E+00    0.1                     -130.2611312178
     3 OT CG       0.25E+00    0.3     0.00001272      -130.2611361014 -1.07E-05
     4 OT LS       0.20E+00    0.1                     -130.2611364671
     5 OT CG       0.20E+00    0.3     0.00000262      -130.2611364927 -3.91E-07
     6 OT LS       0.23E+00    0.1                     -130.2611365120
     7 OT CG       0.23E+00    0.3     0.00000040      -130.2611365125 -1.97E-08
     8 OT LS       0.20E+00    0.1                     -130.2611365128
     9 OT CG       0.20E+00    0.3     0.00000011      -130.2611365129 -4.02E-10

  *** SCF run converged in     9 steps ***


  Core Hamiltonian energy:                                   -133.42745855760094
  Repulsive potential energy:                                   2.41206542472545
  Electronic energy:                                            0.63648856167356
  Dispersion energy:                                            0.11776805834167

  Total energy:                                              -130.26113651286028

 ENERGY| Total FORCE_EVAL ( QS ) energy (a.u.):             -130.261136512893358


 Number of electrons:                                                        256
 Number of occupied orbitals:                                                128
 Number of molecular orbitals:                                               128

 Number of orbital functions:                                                192
 Number of independent orbital functions:                                    192

 Extrapolation method: ASPC


 SCF WAVEFUNCTION OPTIMIZATION

  ----------------------------------- OT ---------------------------------------
  Minimizer      : CG                  : conjugate gradient
  Preconditioner : FULL_SINGLE_INVERSE : inversion of 
                                         H + eS - 2*(Sc)(c^T*H*c+const)(Sc)^T
  Precond_solver : DEFAULT
  Line search    : 2PNT                : 2 energies, one gradient
  stepsize       :    0.08000000                  energy_gap     :    0.08000000
  eps_taylor     :   0.10000E-15                  max_taylor     :             4
  ----------------------------------- OT ---------------------------------------

  Step     Update method      Time    Convergence         Total energy    Change
  ------------------------------------------------------------------------------
     1 OT CG       0.80E-01    0.4     0.00006981      -130.2531870779 -1.30E+02
     2 OT LS       0.25E+00    0.1                     -130.2531951088
     3 OT CG       0.25E+00    0.3     0.00001470      -130.2532018730 -1.48E-05
     4 OT LS       0.20E+00    0.1                     -130.2532023753
     5 OT CG       0.20E+00    0.4     0.00000294      -130.2532024043 -5.31E-07
     6 OT LS       0.24E+00    0.1                     -130.2532024289
     7 OT CG       0.24E+00    0.4     0.00000046      -130.2532024296 -2.52E-08
     8 OT LS       0.20E+00    0.1                     -130.2532024301
     9 OT CG       0.20E+00    0.4     0.00000012      -130.2532024301 -5.18E-10

  *** SCF run converged in     9 steps ***


  Core Hamiltonian energy:                                   -133.51604318901656
  Repulsive potential energy:                                   2.51172864107135
  Electronic energy:                                            0.63365929151062
  Dispersion energy:                                            0.11745282634708

  Total energy:                                              -130.25320243008753

 ENERGY| Total FORCE_EVAL ( QS ) energy (a.u.):             -130.253202430126805


 *******************************************************************************
 ENSEMBLE TYPE                =                                              NVE
 STEP NUMBER                  =                                              100
 TIME [fs]                    =                                        50.000000
 CONSERVED QUANTITY [hartree] =                              -0.130051327977E+03

                                              INSTANTANEOUS             AVERAGES
 CPU TIME [s]                 =                        2.48                 2.95
 ENERGY DRIFT PER ATOM [K]    =         -0.180038771609E+01  -0.175699432053E+01
 POTENTIAL ENERGY[hartree]    =         -0.130253202430E+03  -0.130237344256E+03
 KINETIC ENERGY [hartree]     =          0.201874452939E+00   0.186029072566E+00
 TEMPERATURE [K]              =                     452.105              416.619
 *******************************************************************************


 -------------------------------------------------------------------------------
 -                                                                             -
 -                                DBCSR STATISTICS                             -
 -                                                                             -
 -------------------------------------------------------------------------------
 COUNTER                                    TOTAL       BLAS       SMM       ACC
 flops   32 x   32 x   45                93081600     100.0%      0.0%      0.0%
 flops   32 x   32 x   51               105492480     100.0%      0.0%      0.0%
 flops   32 x   32 x   48               198574080     100.0%      0.0%      0.0%
 flops    1 x   32 x   32               264765440     100.0%      0.0%      0.0%
 flops    1 x    1 x   32               500345856     100.0%      0.0%      0.0%
 flops    4 x   32 x   32               529530880     100.0%      0.0%      0.0%
 flops    4 x    1 x   32               971488256     100.0%      0.0%      0.0%
 flops    1 x    4 x   32               987425792     100.0%      0.0%      0.0%
 flops    1 x   32 x    1              1548071936     100.0%      0.0%      0.0%
 flops    4 x    4 x   32              2104979456     100.0%      0.0%      0.0%
 flops   96 x   32 x   45              2459566080     100.0%      0.0%      0.0%
 flops   96 x   32 x   51              2787508224     100.0%      0.0%      0.0%
 flops    4 x   32 x    1              3149836288     100.0%      0.0%      0.0%
 flops    1 x   32 x    4              3149836288     100.0%      0.0%      0.0%
 flops   96 x   32 x   48              5247074304     100.0%      0.0%      0.0%
 flops    4 x   32 x    4              6303514624     100.0%      0.0%      0.0%
 flops   64 x   32 x   45              7156039680     100.0%      0.0%      0.0%
 flops   64 x   32 x   51              8110178304     100.0%      0.0%      0.0%
 flops   64 x   32 x   48             15266217984     100.0%      0.0%      0.0%
 flops   64 x   32 x   32             35257319424     100.0%      0.0%      0.0%
 flops   96 x   32 x   32             41982885888     100.0%      0.0%      0.0%
 flops total                       138.173733E+09     100.0%      0.0%      0.0%
 flops max/rank                     17.453774E+09     100.0%      0.0%      0.0%
 matmuls inhomo. stacks                         0       0.0%      0.0%      0.0%
 matmuls total                           73349420     100.0%      0.0%      0.0%
 number of processed stacks               1459100     100.0%      0.0%      0.0%
 average stack size                                    50.3       0.0       0.0
 marketing flops                   177.931813E+09
 -------------------------------------------------------------------------------
 # multiplications                          27501
 max memory usage/rank             194.379776E+06
 # max total images/rank                        2
 # MPI messages exchanged                 1980072
 # MPI messages filtered                        0
 MPI messages size (elements):
  total size                         3.378936E+09
  min size                           0.000000E+00
  max size                           4.896000E+03
  average size                       1.706471E+03
 MPI breakdown and total messages size (bytes):
             size <=      128               10908                        0
       128 < size <=     8192              729852               5978947584
      8192 < size <=    32768             1212624              20068927968
     32768 < size <=   131072               26688                983826432
    131072 < size <=  4194304                   0                        0
   4194304 < size <= 16777216                   0                        0
  16777216 < size                               0                        0
 -------------------------------------------------------------------------------
 Warning: using a non-square number of MPI ranks might lead to poor performance.
          used ranks: 8
          suggested : 9 16
 -------------------------------------------------------------------------------

 MEMORY| Estimated peak process memory [MiB]                                 186

 -------------------------------------------------------------------------------
 -                                                                             -
 -                         MESSAGE PASSING PERFORMANCE                         -
 -                                                                             -
 -------------------------------------------------------------------------------

 ROUTINE             CALLS  TOT TIME [s]  AVE VOLUME [Bytes]  PERFORMANCE [MB/s]
 MP_Group                2         0.000
 MP_Bcast            81295         0.181                820.              368.84
 MP_Allreduce       267376         4.279                199.               12.41
 MP_Sync              1014         0.006
 MP_Alltoall        108268         4.144               5752.              150.28
 MP_Wait           1320048         4.322
 MP_comm_split        1013         0.198
 MP_ISend           635944         0.994               5991.             3832.39
 MP_IRecv           636146         0.420               5971.             9051.12
 MP_Recv               453         0.010              49152.             2267.81
 MP_Memory         1627612         1.394
 -------------------------------------------------------------------------------


 -------------------------------------------------------------------------------
 -                                                                             -
 -                           R E F E R E N C E S                               -
 -                                                                             -
 -------------------------------------------------------------------------------
 
 CP2K version 4.1, the CP2K developers group (2016).
 CP2K is freely available from https://www.cp2k.org/ .

 Schuett, Ole; Messmer, Peter; Hutter, Juerg; VandeVondele, Joost. 
 Electronic Structure Calculations on Graphics Processing Units, John Wiley & Sons, Ltd, 173-190 (2016). 
 GPU-Accelerated Sparse Matrix-Matrix Multiplication for Linear Scaling Density Functional Theory.
 http://dx.doi.org/10.1002/9781118670712.ch8


 Borstnik, U; VandeVondele, J; Weber, V; Hutter, J. 
 PARALLEL COMPUTING, 40 (5-6), 47-58 (2014). 
 Sparse matrix multiplication: The distributed block-compressed sparse
 row library.
 http://dx.doi.org/10.1016/j.parco.2014.03.012


 Hutter, J; Iannuzzi, M; Schiffmann, F; VandeVondele, J. 
 WILEY INTERDISCIPLINARY REVIEWS-COMPUTATIONAL MOLECULAR SCIENCE, 4 (1), 15-25 (2014). 
 CP2K: atomistic simulations of condensed matter systems.
 http://dx.doi.org/10.1002/wcms.1159


 Zhechkov, L; Heine, T; Patchkovskii, S; Seifert, G; Duarte, HA. 
 JOURNAL OF CHEMICAL THEORY AND COMPUTATION, 1 (5), 841-847 (2005). 
 An efficient a Posteriori treatment for dispersion interaction in
 density-functional-based tight binding.
 http://dx.doi.org/10.1021/ct050065y


 Frigo, M; Johnson, SG. 
 PROCEEDINGS OF THE IEEE, 93 (2), 216-231 (2005). 
 The design and implementation of FFTW3.
 http://dx.doi.org/10.1109/JPROC.2004.840301


 Kolafa, J. 
 JOURNAL OF COMPUTATIONAL CHEMISTRY, 25 (3), 335-342 (2004). 
 Time-reversible always stable predictor-corrector method for molecular dynamics of polarizable molecules.
 http://dx.doi.org/10.1002/jcc.10385


 VandeVondele, J; Hutter, J. 
 JOURNAL OF CHEMICAL PHYSICS, 118 (10), 4365-4369 (2003). 
 An efficient orbital transformation method for electronic structure
 calculations.
 http://dx.doi.org/10.1063/1.1543154


 Elstner, M; Porezag, D; Jungnickel, G; Elsner, J; Haugk, M;
 Frauenheim, T; Suhai, S; Seifert, G. 
 PHYSICAL REVIEW B, 58 (11), 7260-7268 (1998). 
 Self-consistent-charge density-functional tight-binding method for
 simulations of complex materials properties.
 http://dx.doi.org/10.1103/PhysRevB.58.7260


 Seifert, G; Porezag, D; Frauenheim, T. 
 INTERNATIONAL JOURNAL OF QUANTUM CHEMISTRY, 58 (2), 185-192 (1996). 
 Calculations of molecules, clusters, and solids with a simplified
 LCAO-DFT-LDA scheme.
 http://dx.doi.org/10.1002/(SICI)1097-461X(1996)58:2<185::AID-QUA7>3.0.CO;2-U


 POREZAG, D; FRAUENHEIM, T; KOHLER, T; SEIFERT, G; KASCHNER, R. 
 PHYSICAL REVIEW B, 51 (19), 12947-12957 (1995). 
 CONSTRUCTION OF TIGHT-BINDING-LIKE POTENTIALS ON THE BASIS OF
 DENSITY-FUNCTIONAL THEORY - APPLICATION TO CARBON.
 http://dx.doi.org/10.1103/PhysRevB.51.12947


 -------------------------------------------------------------------------------
 -                                                                             -
 -                                T I M I N G                                  -
 -                                                                             -
 -------------------------------------------------------------------------------
 SUBROUTINE                       CALLS  ASD         SELF TIME        TOTAL TIME
                                MAXIMUM       AVERAGE  MAXIMUM  AVERAGE  MAXIMUM
 CP2K                                 1  1.0    0.015    0.034  295.458  295.465
 qs_mol_dyn_low                       1  2.0    0.007    0.008  295.184  295.216
 qs_forces                          101  4.0    0.008    0.009  293.853  293.859
 qs_energies                        101  5.0    0.003    0.003  291.917  291.925
 scf_env_do_scf                     101  6.0    0.005    0.018  274.408  274.409
 dbcsr_multiply_generic           27501 12.2    1.068    1.085  266.609  266.912
 scf_env_do_scf_inner_loop         1921  6.5    0.091    0.387  259.892  259.923
 qs_scf_new_mos                    1921  7.5    0.011    0.013  248.989  249.024
 qs_scf_loop_do_ot                 1921  8.5    0.008    0.008  248.978  249.015
 ot_scf_mini                       1921  9.5    0.066    0.068  229.781  229.823
 velocity_verlet                    100  3.0    0.435    0.461  204.084  204.186
 make_m2s                         55002 13.2    0.894    0.935  164.176  164.487
 make_images                      55002 14.2  145.165  146.673  159.367  159.754
 ot_mini                           1921 10.5    0.007    0.008  119.317  119.338
 qs_ot_get_derivative              1011 11.5    0.020    0.023  107.920  107.935
 multiply_cannon                  27501 13.2   73.131   73.985   93.285   94.176
 qs_ot_get_p                       2022 10.4    0.017    0.021   54.727   54.796
 qs_ot_get_derivative_taylor        505 13.0    0.023    0.025   48.324   48.341
 qs_ot_get_orbitals                1921 10.5    0.023    0.025   37.921   37.980
 qs_ot_get_derivative_diag          506 12.0    0.026    0.028   26.176   26.184
 calculate_dm_sparse               2022  9.4    0.013    0.014   20.739   20.816
 qs_ot_p2m_diag                    1013 11.0    0.225    0.278   20.030   20.086
 init_scf_loop                      101  7.0    0.002    0.002   14.451   14.455
 init_scf_run                       101  6.0    0.006    0.040   14.252   14.252
 scf_env_initial_rho_setup          101  7.0    0.003    0.020   14.245   14.250
 wfi_extrapolate                    101  8.0    0.005    0.005   14.159   14.183
 apply_preconditioner_dbcsr        1112 12.5    0.002    0.002   12.367   12.378
 apply_single                      1112 13.5    0.007    0.007   12.365   12.376
 rebuild_ks_matrix                 2022  8.3    0.004    0.004   12.270   12.308
 build_dftb_ks_matrix              2022  9.3    0.034    0.036   12.266   12.303
 qs_ot_p2m_taylor                  1009 11.8    0.009    0.010   11.429   11.467
 ot_new_cg_direction               1011 11.5    0.007    0.007   11.101   11.104
 qs_ks_update_qs_env               2022  7.5    0.007    0.008   10.935   10.968
 prepare_preconditioner             101  8.0    0.000    0.000    9.837    9.841
 make_preconditioner                101  9.0    0.000    0.001    9.837    9.841
 make_full_single_inverse           101 10.0    0.012    0.013    9.449    9.453
 cp_dbcsr_syevd                    1013 12.0    1.302    1.341    9.269    9.273
 multiply_cannon_multrec         110004 14.2    8.799    8.886    9.031    9.122
 mp_waitall_1                   1320048 15.9    6.934    8.148    6.934    8.148
 cp_dbcsr_sm_fm_multiply            493  9.4    0.009    0.010    7.933    7.938
 cp_fm_syevd                       1013 13.0    4.047    7.354    7.561    7.587
 cp_dbcsr_sm_fm_multiply_core       493 10.4    0.003    0.004    7.462    7.512
 make_images_data                 55002 15.2    0.393    0.412    5.461    6.648
 cp_fm_syevd_base                  1013 14.0    3.272    6.561    3.272    6.561
 -------------------------------------------------------------------------------

 The number of warnings for this run is : 0
 
 -------------------------------------------------------------------------------
  **** **** ******  **  PROGRAM ENDED AT                 2018-03-24 08:33:15.613
 ***** ** ***  *** **   PROGRAM RAN ON                                    ubuntu
 **    ****   ******    PROGRAM RAN BY                                      user
 ***** **    ** ** **   PROGRAM PROCESS ID                                 15844
  **** **  *******  **  PROGRAM STOPPED IN       /home/user/LOKT.02.048/week5/IR
