 DBCSR| Multiplication driver                                               BLAS
 DBCSR| Multrec recursion limit                                              512
 DBCSR| Multiplication stack size                                           1000
 DBCSR| Maximum elements for images                                    UNLIMITED
 DBCSR| Multiplicative factor virtual images                                   1
 DBCSR| Randmat seed                                                    12341313
 DBCSR| Multiplication size stacks                                             3
 DBCSR| Number of 3D layers                                               SINGLE
 DBCSR| Use MPI memory allocation                                              T
 DBCSR| Use RMA algorithm                                                      F
 DBCSR| Use Communication thread                                               T
 DBCSR| Communication thread load                                             87


  **** **** ******  **  PROGRAM STARTED AT               2018-03-24 08:27:17.690
 ***** ** ***  *** **   PROGRAM STARTED ON                                ubuntu
 **    ****   ******    PROGRAM STARTED BY                                  user
 ***** **    ** ** **   PROGRAM PROCESS ID                                 15805
  **** **  *******  **  PROGRAM STARTED IN       /home/user/LOKT.02.048/week5/IR

 CP2K| version string:                                          CP2K version 4.1
 CP2K| source code revision number:                                    svn:17462
 CP2K| cp2kflags: libint fftw3 libxc elpa3 parallel mpi3 scalapack              
 CP2K| is freely available from                            https://www.cp2k.org/
 CP2K| Program compiled at                          Sat Aug  5 09:59:49 UTC 2017
 CP2K| Program compiled on                                              lgw01-13
 CP2K| Program compiled for                                Linux-x86_64-gfortran
 CP2K| Data directory path                                       /usr/share/cp2k
 CP2K| Input file name                                                 IR-PM6.in

 GLOBAL| Force Environment number                                              1
 GLOBAL| Basis set file name                                           BASIS_SET
 GLOBAL| Potential file name                                           POTENTIAL
 GLOBAL| MM Potential file name                                     MM_POTENTIAL
 GLOBAL| Coordinate file name                                          ./mol.xyz
 GLOBAL| Method name                                                        CP2K
 GLOBAL| Project name                                                      water
 GLOBAL| Preferred FFT library                                             FFTW3
 GLOBAL| Preferred diagonalization lib.                                       SL
 GLOBAL| Run type                                                             MD
 GLOBAL| All-to-all communication in single precision                          F
 GLOBAL| FFTs using library dependent lengths                                  F
 GLOBAL| Global print level                                                  LOW
 GLOBAL| Total number of message passing processes                             1
 GLOBAL| Number of threads for this process                                    1
 GLOBAL| This output is from process                                           0
 GLOBAL| CPU model name :  Intel(R) Xeon(R) CPU           X5690  @ 3.47GHz

 MEMORY| system memory details [Kb]
 MEMORY|                        rank 0           min           max       average
 MEMORY| MemTotal             16402728      16402728      16402728      16402728
 MEMORY| MemFree               9776124       9776124       9776124       9776124
 MEMORY| Buffers                203924        203924        203924        203924
 MEMORY| Cached                3638680       3638680       3638680       3638680
 MEMORY| Slab                   311088        311088        311088        311088
 MEMORY| SReclaimable           226396        226396        226396        226396
 MEMORY| MemLikelyFree        13845124      13845124      13845124      13845124


 GENERATE|  Preliminary Number of Bonds generated:                             0
 GENERATE|  Achieved consistency in connectivity generation.


              #####   #####        # #     # ######  ######   #####  
             #     # #     #      #  ##    # #     # #     # #     # 
             #     # #           #   # #   # #     # #     # #     # 
             #     #  #####     #    #  #  # #     # #     # #     # 
             #   # #       #   #     #   # # #     # #     # #     # 
             #    #  #     #  #      #    ## #     # #     # #     # 
              #### #  #####  #       #     # ######  ######   #####  
                                                                     
                              T. Laino and J. Hutter                 
                                                                     
                                   2008 - 2015                       



 SCF PARAMETERS         Density guess:                                    ATOMIC
                        --------------------------------------------------------
                        max_scf:                                            2000
                        max_scf_history:                                       0
                        max_diis:                                              4
                        --------------------------------------------------------
                        eps_scf:                                        3.00E-07
                        eps_scf_history:                                0.00E+00
                        eps_diis:                                       1.00E-01
                        eps_eigval:                                     1.00E-05
                        --------------------------------------------------------
                        level_shift [a.u.]:                                 0.00
                        --------------------------------------------------------
                        Mixing method:                           DIRECT_P_MIXING
                        --------------------------------------------------------
                        No outer SCF

 MD| Molecular Dynamics Protocol 
 MD| Ensemble Type                                                           NVE
 MD| Number of Time Steps                                                    100
 MD| Time Step [fs]                                                         0.50
 MD| Temperature [K]                                                      300.00
 MD| Temperature tolerance [K]                                              0.00
 MD| Print MD information every                                       10 step(s)
 MD| File type     Print frequency[steps]                             File names
 MD| Coordinates            1                                    water-pos-1.xyz
 MD| Velocities             1                                    water-vel-1.xyz
 MD| Energies              10                                       water-1.ener
 MD| Dump                  20                                    water-1.restart

 ROT| Rotational Analysis Info 
 ROT| Principal axes and moments of inertia in atomic units:
 ROT|                                1                 2                 3
 ROT| EIGENVALUES            0.441182550E+04   0.778025710E+04   0.121920826E+05
 ROT|      X                     0.000000000       0.000000000       1.000000000
 ROT|      Y                    -1.000000000      -0.000000000       0.000000000
 ROT|      Z                    -0.000000000       1.000000000       0.000000000
 ROT| Numer of Rotovibrational vectors:     6

 Calculation of degrees of freedom
                                                      Number of atoms:         3
                                 Number of Intramolecular constraints:         0
                                 Number of Intermolecular constraints:         0
                                  Invariants(translation + rotations):         3
                                                   Degrees of freedom:         6


 Restraints Information
                                  Number of Intramolecular restraints:         0
                                  Number of Intermolecular restraints:         0
 ************************** Velocities initialization **************************
 Initial Temperature                                                    300.00 K
 COM velocity:           -0.000000000000      0.000000000000      0.000000000000
 *******************************************************************************


 Number of electrons:                                                          8
 Number of occupied orbitals:                                                  4
 Number of molecular orbitals:                                                 4

 Number of orbital functions:                                                  6
 Number of independent orbital functions:                                      6

 Extrapolation method: initial_guess


 SCF WAVEFUNCTION OPTIMIZATION

  Step     Update method      Time    Convergence         Total energy    Change
  ------------------------------------------------------------------------------
     1 P_Mix/Diag. 0.40E+00    0.0     0.58047693       -10.0448441375 -1.00E+01
     2 P_Mix/Diag. 0.40E+00    0.0     0.38319096       -10.6313767112 -5.87E-01
     3 P_Mix/Diag. 0.40E+00    0.0     0.24826108       -11.0335241595 -4.02E-01
     4 P_Mix/Diag. 0.40E+00    0.0     0.15980604       -11.2952888555 -2.62E-01
     5 P_Mix/Diag. 0.40E+00    0.0     0.10278094       -11.4607382145 -1.65E-01
     6 P_Mix/Diag. 0.40E+00    0.0     0.06626333       -11.5635099729 -1.03E-01
     7 DIIS/Diag.  0.74E-02    0.0     0.07274263       -11.6266784233 -6.32E-02
     8 DIIS/Diag.  0.19E-02    0.0     0.00828397       -11.7247642193 -9.81E-02
     9 DIIS/Diag.  0.21E-02    0.0     0.00364312       -11.7247617491  2.47E-06
    10 DIIS/Diag.  0.32E-03    0.0     0.00133124       -11.7247749378 -1.32E-05
    11 DIIS/Diag.  0.34E-04    0.0     0.00008863       -11.7247754455 -5.08E-07
    12 DIIS/Diag.  0.18E-06    0.0     0.00000037       -11.7247754492 -3.74E-09
    13 DIIS/Diag.  0.12E-09    0.0     0.00000002       -11.7247754492 -9.06E-14

  *** SCF run converged in    13 steps ***


  Core-core repulsion energy [eV]:                            135.98534164525941
  Core Hamiltonian energy [eV]:                              -547.54221958221535
  Two-electron integral energy [eV]:                          185.01902511215428
  Electronic energy [eV]:                                    -455.03270702613810

  Total energy [eV]:                                         -319.04736538087877

  Atomic reference energy [eV]:                               316.72256923991051
  Heat of formation [kcal/mol]:                               -53.61107685580884

 ENERGY| Total FORCE_EVAL ( QS ) energy (a.u.):              -11.724775449228309


 MD_ENERGIES| Initialization proceeding


 ******************************** GO CP2K GO! **********************************
 INITIAL POTENTIAL ENERGY[hartree]     =                     -0.117247754492E+02
 INITIAL KINETIC ENERGY[hartree]       =                      0.285013380896E-02
 INITIAL TEMPERATURE[K]                =                                 300.000
 INITIAL VOLUME[bohr^3]                =                      0.182205033743E+06
 INITIAL CELL LNTHS[bohr]   =      0.5669178E+02   0.5669178E+02   0.5669178E+02
 INITIAL CELL ANGLS[deg]    =      0.9000000E+02   0.9000000E+02   0.9000000E+02
 ******************************** GO CP2K GO! **********************************

 Number of electrons:                                                          8
 Number of occupied orbitals:                                                  4
 Number of molecular orbitals:                                                 4

 Number of orbital functions:                                                  6
 Number of independent orbital functions:                                      6

 Extrapolation method: ASPC


 SCF WAVEFUNCTION OPTIMIZATION

  Step     Update method      Time    Convergence         Total energy    Change
  ------------------------------------------------------------------------------
     1 P_Mix/Diag. 0.40E+00    0.0     0.00588980       -11.7242702451 -1.17E+01
     2 P_Mix/Diag. 0.40E+00    0.0     0.00438451       -11.7242934571 -2.32E-05
     3 DIIS/Diag.  0.51E-03    0.0     0.00613247       -11.7243114862 -1.80E-05
     4 DIIS/Diag.  0.23E-03    0.0     0.00063390       -11.7243545865 -4.31E-05
     5 DIIS/Diag.  0.42E-03    0.0     0.00041989       -11.7243540261  5.60E-07
     6 DIIS/Diag.  0.30E-03    0.0     0.00105324       -11.7243544287 -4.03E-07
     7 DIIS/Diag.  0.46E-05    0.0     0.00001444       -11.7243548492 -4.20E-07
     8 DIIS/Diag.  0.15E-05    0.0     0.00000417       -11.7243548493 -1.08E-10
     9 DIIS/Diag.  0.29E-06    0.0     0.00000084       -11.7243548493 -6.60E-12
    10 DIIS/Diag.  0.38E-07    0.0     0.00000004       -11.7243548493 -3.13E-13

  *** SCF run converged in    10 steps ***


  Core-core repulsion energy [eV]:                            135.37640932688930
  Core Hamiltonian energy [eV]:                              -547.27927357996441
  Two-electron integral energy [eV]:                          185.73388795844605
  Electronic energy [eV]:                                    -454.41232960074137

  Total energy [eV]:                                         -319.03592027385201

  Atomic reference energy [eV]:                               316.72256923991051
  Heat of formation [kcal/mol]:                               -53.34714639686563

 ENERGY| Total FORCE_EVAL ( QS ) energy (a.u.):              -11.724354849265922


 Number of electrons:                                                          8
 Number of occupied orbitals:                                                  4
 Number of molecular orbitals:                                                 4

 Number of orbital functions:                                                  6
 Number of independent orbital functions:                                      6

 Extrapolation method: ASPC


 SCF WAVEFUNCTION OPTIMIZATION

  Step     Update method      Time    Convergence         Total energy    Change
  ------------------------------------------------------------------------------
     1 P_Mix/Diag. 0.40E+00    0.0     0.00100930       -11.7239268654 -1.17E+01
     2 P_Mix/Diag. 0.40E+00    0.0     0.00075706       -11.7239275249 -6.59E-07
     3 DIIS/Diag.  0.11E-03    0.0     0.00117531       -11.7239280329 -5.08E-07
     4 DIIS/Diag.  0.57E-04    0.0     0.00015738       -11.7239292577 -1.22E-06
     5 DIIS/Diag.  0.10E-03    0.0     0.00032039       -11.7239292353  2.23E-08
     6 DIIS/Diag.  0.60E-05    0.0     0.00002043       -11.7239292667 -3.14E-08
     7 DIIS/Diag.  0.53E-06    0.0     0.00000139       -11.7239292668 -9.91E-11
     8 DIIS/Diag.  0.12E-06    0.0     0.00000010       -11.7239292668 -1.01E-12

  *** SCF run converged in     8 steps ***


  Core-core repulsion energy [eV]:                            134.93596760750188
  Core Hamiltonian energy [eV]:                              -547.07222234502808
  Two-electron integral energy [eV]:                          186.22383030296831
  Electronic energy [eV]:                                    -453.96030719354394

  Total energy [eV]:                                         -319.02433958604206

  Atomic reference energy [eV]:                               316.72256923991051
  Heat of formation [kcal/mol]:                               -53.08008937053871

 ENERGY| Total FORCE_EVAL ( QS ) energy (a.u.):              -11.723929266801218


 Number of electrons:                                                          8
 Number of occupied orbitals:                                                  4
 Number of molecular orbitals:                                                 4

 Number of orbital functions:                                                  6
 Number of independent orbital functions:                                      6

 Extrapolation method: ASPC


 SCF WAVEFUNCTION OPTIMIZATION

  Step     Update method      Time    Convergence         Total energy    Change
  ------------------------------------------------------------------------------
     1 P_Mix/Diag. 0.40E+00    0.0     0.00066402       -11.7235662255 -1.17E+01
     2 P_Mix/Diag. 0.40E+00    0.0     0.00048963       -11.7235664617 -2.36E-07
     3 DIIS/Diag.  0.61E-04    0.0     0.00059743       -11.7235666395 -1.78E-07
     4 DIIS/Diag.  0.33E-04    0.0     0.00009268       -11.7235670453 -4.06E-07
     5 DIIS/Diag.  0.61E-04    0.0     0.00019576       -11.7235670373  8.05E-09
     6 DIIS/Diag.  0.41E-05    0.0     0.00001505       -11.7235670490 -1.17E-08
     7 DIIS/Diag.  0.21E-06    0.0     0.00000055       -11.7235670490 -5.75E-11
     8 DIIS/Diag.  0.43E-07    0.0     0.00000007       -11.7235670490 -1.56E-13

  *** SCF run converged in     8 steps ***


  Core-core repulsion energy [eV]:                            134.68257006178013
  Core Hamiltonian energy [eV]:                              -546.92614410655915
  Two-electron integral energy [eV]:                          186.45818181014792
  Electronic energy [eV]:                                    -453.69705320148518

  Total energy [eV]:                                         -319.01448313970508

  Atomic reference energy [eV]:                               316.72256923991051
  Heat of formation [kcal/mol]:                               -52.85279430032428

 ENERGY| Total FORCE_EVAL ( QS ) energy (a.u.):              -11.723567049047452


 Number of electrons:                                                          8
 Number of occupied orbitals:                                                  4
 Number of molecular orbitals:                                                 4

 Number of orbital functions:                                                  6
 Number of independent orbital functions:                                      6

 Extrapolation method: ASPC


 SCF WAVEFUNCTION OPTIMIZATION

  Step     Update method      Time    Convergence         Total energy    Change
  ------------------------------------------------------------------------------
     1 P_Mix/Diag. 0.40E+00    0.0     0.00054719       -11.7233237924 -1.17E+01
     2 P_Mix/Diag. 0.40E+00    0.0     0.00040159       -11.7233239424 -1.50E-07
     3 DIIS/Diag.  0.48E-04    0.0     0.00047279       -11.7233240547 -1.12E-07
     4 DIIS/Diag.  0.26E-04    0.0     0.00007187       -11.7233243072 -2.53E-07
     5 DIIS/Diag.  0.47E-04    0.0     0.00015346       -11.7233243023  4.96E-09
     6 DIIS/Diag.  0.33E-05    0.0     0.00001250       -11.7233243096 -7.30E-09
     7 DIIS/Diag.  0.19E-06    0.0     0.00000030       -11.7233243096 -4.16E-11
     8 DIIS/Diag.  0.14E-07    0.0     0.00000008       -11.7233243096 -9.24E-14

  *** SCF run converged in     8 steps ***


  Core-core repulsion energy [eV]:                            134.62498998905804
  Core Hamiltonian energy [eV]:                              -546.84329169440582
  Two-electron integral energy [eV]:                          186.42084768350747
  Electronic energy [eV]:                                    -453.63286785265205

  Total energy [eV]:                                         -319.00787786359405

  Atomic reference energy [eV]:                               316.72256923991051
  Heat of formation [kcal/mol]:                               -52.70047300255333

 ENERGY| Total FORCE_EVAL ( QS ) energy (a.u.):              -11.723324309606262


 Number of electrons:                                                          8
 Number of occupied orbitals:                                                  4
 Number of molecular orbitals:                                                 4

 Number of orbital functions:                                                  6
 Number of independent orbital functions:                                      6

 Extrapolation method: ASPC


 SCF WAVEFUNCTION OPTIMIZATION

  Step     Update method      Time    Convergence         Total energy    Change
  ------------------------------------------------------------------------------
     1 P_Mix/Diag. 0.40E+00    0.0     0.00049548       -11.7232328364 -1.17E+01
     2 P_Mix/Diag. 0.40E+00    0.0     0.00036248       -11.7232329525 -1.16E-07
     3 DIIS/Diag.  0.42E-04    0.0     0.00042034       -11.7232330391 -8.66E-08
     4 DIIS/Diag.  0.23E-04    0.0     0.00006146       -11.7232332319 -1.93E-07
     5 DIIS/Diag.  0.40E-04    0.0     0.00013264       -11.7232332281  3.74E-09
     6 DIIS/Diag.  0.30E-05    0.0     0.00001161       -11.7232332337 -5.57E-09
     7 DIIS/Diag.  0.18E-06    0.0     0.00000028       -11.7232332337 -3.63E-11

  *** SCF run converged in     7 steps ***


  Core-core repulsion energy [eV]:                            134.76214339290186
  Core Hamiltonian energy [eV]:                              -546.82330741572093
  Two-electron integral energy [eV]:                          186.11152891885428
  Electronic energy [eV]:                                    -453.76754295629382

  Total energy [eV]:                                         -319.00539956339196

  Atomic reference energy [eV]:                               316.72256923991051
  Heat of formation [kcal/mol]:                               -52.64332203767405

 ENERGY| Total FORCE_EVAL ( QS ) energy (a.u.):              -11.723233233745779


 Number of electrons:                                                          8
 Number of occupied orbitals:                                                  4
 Number of molecular orbitals:                                                 4

 Number of orbital functions:                                                  6
 Number of independent orbital functions:                                      6

 Extrapolation method: ASPC


 SCF WAVEFUNCTION OPTIMIZATION

  Step     Update method      Time    Convergence         Total energy    Change
  ------------------------------------------------------------------------------
     1 P_Mix/Diag. 0.40E+00    0.0     0.00048964       -11.7232958058 -1.17E+01
     2 P_Mix/Diag. 0.40E+00    0.0     0.00035753       -11.7232959138 -1.08E-07
     3 DIIS/Diag.  0.41E-04    0.0     0.00041035       -11.7232959943 -8.05E-08
     4 DIIS/Diag.  0.21E-04    0.0     0.00005753       -11.7232961724 -1.78E-07
     5 DIIS/Diag.  0.38E-04    0.0     0.00012554       -11.7232961690  3.40E-09
     6 DIIS/Diag.  0.29E-05    0.0     0.00001179       -11.7232961741 -5.12E-09
     7 DIIS/Diag.  0.20E-06    0.0     0.00000029       -11.7232961741 -3.81E-11

  *** SCF run converged in     7 steps ***


  Core-core repulsion energy [eV]:                            135.08333982352403
  Core Hamiltonian energy [eV]:                              -546.86361125544443
  Two-electron integral energy [eV]:                          185.54631834742236
  Electronic energy [eV]:                                    -454.09045208173325

  Total energy [eV]:                                         -319.00711225820919

  Atomic reference energy [eV]:                               316.72256923991051
  Heat of formation [kcal/mol]:                               -52.68281772155755

 ENERGY| Total FORCE_EVAL ( QS ) energy (a.u.):              -11.723296174124950


 Number of electrons:                                                          8
 Number of occupied orbitals:                                                  4
 Number of molecular orbitals:                                                 4

 Number of orbital functions:                                                  6
 Number of independent orbital functions:                                      6

 Extrapolation method: ASPC


 SCF WAVEFUNCTION OPTIMIZATION

  Step     Update method      Time    Convergence         Total energy    Change
  ------------------------------------------------------------------------------
     1 P_Mix/Diag. 0.40E+00    0.0     0.00046804       -11.7234862884 -1.17E+01
     2 P_Mix/Diag. 0.40E+00    0.0     0.00034153       -11.7234863836 -9.53E-08
     3 DIIS/Diag.  0.38E-04    0.0     0.00038964       -11.7234864547 -7.10E-08
     4 DIIS/Diag.  0.19E-04    0.0     0.00005228       -11.7234866114 -1.57E-07
     5 DIIS/Diag.  0.34E-04    0.0     0.00011549       -11.7234866084  2.94E-09
     6 DIIS/Diag.  0.27E-05    0.0     0.00001163       -11.7234866129 -4.49E-09
     7 DIIS/Diag.  0.22E-06    0.0     0.00000028       -11.7234866130 -3.79E-11

  *** SCF run converged in     7 steps ***


  Core-core repulsion energy [eV]:                            135.56877227012325
  Core Hamiltonian energy [eV]:                              -546.95971743288567
  Two-electron integral energy [eV]:                          184.75730159976672
  Electronic energy [eV]:                                    -454.58106663300225

  Total energy [eV]:                                         -319.01229436287906

  Atomic reference energy [eV]:                               316.72256923991051
  Heat of formation [kcal/mol]:                               -52.80231990363496

 ENERGY| Total FORCE_EVAL ( QS ) energy (a.u.):              -11.723486612975744


 Number of electrons:                                                          8
 Number of occupied orbitals:                                                  4
 Number of molecular orbitals:                                                 4

 Number of orbital functions:                                                  6
 Number of independent orbital functions:                                      6

 Extrapolation method: ASPC


 SCF WAVEFUNCTION OPTIMIZATION

  Step     Update method      Time    Convergence         Total energy    Change
  ------------------------------------------------------------------------------
     1 P_Mix/Diag. 0.40E+00    0.0     0.00042980       -11.7237563213 -1.17E+01
     2 P_Mix/Diag. 0.40E+00    0.0     0.00031382       -11.7237564007 -7.95E-08
     3 DIIS/Diag.  0.34E-04    0.0     0.00035710       -11.7237564600 -5.93E-08
     4 DIIS/Diag.  0.17E-04    0.0     0.00004584       -11.7237565908 -1.31E-07
     5 DIIS/Diag.  0.29E-04    0.0     0.00010273       -11.7237565884  2.41E-09
     6 DIIS/Diag.  0.24E-05    0.0     0.00001115       -11.7237565921 -3.73E-09
     7 DIIS/Diag.  0.23E-06    0.0     0.00000028       -11.7237565921 -3.60E-11

  *** SCF run converged in     7 steps ***


  Core-core repulsion energy [eV]:                            136.19024128576351
  Core Hamiltonian energy [eV]:                              -547.10549565942972
  Two-electron integral energy [eV]:                          183.79122700874012
  Electronic energy [eV]:                                    -455.20988215505963

  Total energy [eV]:                                         -319.01964086929610

  Atomic reference energy [eV]:                               316.72256923991051
  Heat of formation [kcal/mol]:                               -52.97173437968483

 ENERGY| Total FORCE_EVAL ( QS ) energy (a.u.):              -11.723756592130638


 Number of electrons:                                                          8
 Number of occupied orbitals:                                                  4
 Number of molecular orbitals:                                                 4

 Number of orbital functions:                                                  6
 Number of independent orbital functions:                                      6

 Extrapolation method: ASPC


 SCF WAVEFUNCTION OPTIMIZATION

  Step     Update method      Time    Convergence         Total energy    Change
  ------------------------------------------------------------------------------
     1 P_Mix/Diag. 0.40E+00    0.0     0.00037329       -11.7240486888 -1.17E+01
     2 P_Mix/Diag. 0.40E+00    0.0     0.00027314       -11.7240487511 -6.23E-08
     3 DIIS/Diag.  0.28E-04    0.0     0.00031920       -11.7240487976 -4.65E-08
     4 DIIS/Diag.  0.14E-04    0.0     0.00003844       -11.7240488998 -1.02E-07
     5 DIIS/Diag.  0.23E-04    0.0     0.00008764       -11.7240488979  1.83E-09
     6 DIIS/Diag.  0.24E-05    0.0     0.00001042       -11.7240489008 -2.88E-09
     7 DIIS/Diag.  0.23E-06    0.0     0.00000029       -11.7240489008 -3.27E-11

  *** SCF run converged in     7 steps ***


  Core-core repulsion energy [eV]:                            136.91219186502784
  Core Hamiltonian energy [eV]:                              -547.29339807722317
  Two-electron integral energy [eV]:                          182.70722243670713
  Electronic energy [eV]:                                    -455.93978685886958

  Total energy [eV]:                                         -319.02759499384177

  Atomic reference energy [eV]:                               316.72256923991051
  Heat of formation [kcal/mol]:                               -53.15516086376406

 ENERGY| Total FORCE_EVAL ( QS ) energy (a.u.):              -11.724048900841863


 Number of electrons:                                                          8
 Number of occupied orbitals:                                                  4
 Number of molecular orbitals:                                                 4

 Number of orbital functions:                                                  6
 Number of independent orbital functions:                                      6

 Extrapolation method: ASPC


 SCF WAVEFUNCTION OPTIMIZATION

  Step     Update method      Time    Convergence         Total energy    Change
  ------------------------------------------------------------------------------
     1 P_Mix/Diag. 0.40E+00    0.0     0.00029787       -11.7243110373 -1.17E+01
     2 P_Mix/Diag. 0.40E+00    0.0     0.00021893       -11.7243110833 -4.60E-08
     3 DIIS/Diag.  0.21E-04    0.0     0.00028150       -11.7243111175 -3.42E-08
     4 DIIS/Diag.  0.14E-04    0.0     0.00003048       -11.7243111917 -7.42E-08
     5 DIIS/Diag.  0.23E-04    0.0     0.00007093       -11.7243111905  1.27E-09
     6 DIIS/Diag.  0.25E-05    0.0     0.00000960       -11.7243111925 -2.04E-09
     7 DIIS/Diag.  0.23E-06    0.0     0.00000019       -11.7243111925 -2.88E-11

  *** SCF run converged in     7 steps ***


  Core-core repulsion energy [eV]:                            137.69319690647379
  Core Hamiltonian energy [eV]:                              -547.51471304062648
  Two-electron integral energy [eV]:                          181.57356764013770
  Electronic energy [eV]:                                    -456.72792922055754

  Total energy [eV]:                                         -319.03473231408384

  Atomic reference energy [eV]:                               316.72256923991051
  Heat of formation [kcal/mol]:                               -53.31975139163862

 ENERGY| Total FORCE_EVAL ( QS ) energy (a.u.):              -11.724311192545894


 *******************************************************************************
 ENSEMBLE TYPE                =                                              NVE
 STEP NUMBER                  =                                               10
 TIME [fs]                    =                                         5.000000
 CONSERVED QUANTITY [hartree] =                              -0.117219250261E+02

                                              INSTANTANEOUS             AVERAGES
 CPU TIME [s]                 =                        0.01                 0.01
 ENERGY DRIFT PER ATOM [K]    =          0.304492499373E-01   0.820546042837E+00
 POTENTIAL ENERGY[hartree]    =         -0.117243111925E+02  -0.117237308181E+02
 KINETIC ENERGY [hartree]     =          0.238616640800E-02   0.181370337816E-02
 TEMPERATURE [K]              =                     251.164              190.907
 *******************************************************************************


 Number of electrons:                                                          8
 Number of occupied orbitals:                                                  4
 Number of molecular orbitals:                                                 4

 Number of orbital functions:                                                  6
 Number of independent orbital functions:                                      6

 Extrapolation method: ASPC


 SCF WAVEFUNCTION OPTIMIZATION

  Step     Update method      Time    Convergence         Total energy    Change
  ------------------------------------------------------------------------------
     1 P_Mix/Diag. 0.40E+00    0.0     0.00024728       -11.7245083354 -1.17E+01
     2 P_Mix/Diag. 0.40E+00    0.0     0.00018928       -11.7245083690 -3.36E-08
     3 DIIS/Diag.  0.18E-04    0.0     0.00023269       -11.7245083936 -2.46E-08
     4 DIIS/Diag.  0.12E-04    0.0     0.00002261       -11.7245084446 -5.10E-08
     5 DIIS/Diag.  0.19E-04    0.0     0.00005377       -11.7245084438  7.74E-10
     6 DIIS/Diag.  0.24E-05    0.0     0.00000900       -11.7245084451 -1.28E-09
     7 DIIS/Diag.  0.22E-06    0.0     0.00000016       -11.7245084451 -2.58E-11

  *** SCF run converged in     7 steps ***


  Core-core repulsion energy [eV]:                            138.48801853109862
  Core Hamiltonian energy [eV]:                              -547.75991040165661
  Two-electron integral energy [eV]:                          180.46358408191432
  Electronic energy [eV]:                                    -457.52811836069935

  Total energy [eV]:                                         -319.04009982960076

  Atomic reference energy [eV]:                               316.72256923991051
  Heat of formation [kcal/mol]:                               -53.44352924976186

 ENERGY| Total FORCE_EVAL ( QS ) energy (a.u.):              -11.724508445120227


 Number of electrons:                                                          8
 Number of occupied orbitals:                                                  4
 Number of molecular orbitals:                                                 4

 Number of orbital functions:                                                  6
 Number of independent orbital functions:                                      6

 Extrapolation method: ASPC


 SCF WAVEFUNCTION OPTIMIZATION

  Step     Update method      Time    Convergence         Total energy    Change
  ------------------------------------------------------------------------------
     1 P_Mix/Diag. 0.40E+00    0.0     0.00022176       -11.7246301094 -1.17E+01
     2 P_Mix/Diag. 0.40E+00    0.0     0.00016276       -11.7246301374 -2.79E-08
     3 DIIS/Diag.  0.16E-04    0.0     0.00017457       -11.7246301570 -1.97E-08
     4 DIIS/Diag.  0.82E-05    0.0     0.00001455       -11.7246301946 -3.75E-08
     5 DIIS/Diag.  0.13E-04    0.0     0.00003494       -11.7246301942  3.50E-10
     6 DIIS/Diag.  0.22E-05    0.0     0.00000794       -11.7246301948 -5.93E-10
     7 DIIS/Diag.  0.21E-06    0.0     0.00000013       -11.7246301948 -2.03E-11

  *** SCF run converged in     7 steps ***


  Core-core repulsion energy [eV]:                            139.25030060171093
  Core Hamiltonian energy [eV]:                              -548.01912143436459
  Two-electron integral energy [eV]:                          179.45081604983326
  Electronic energy [eV]:                                    -458.29371340944795

  Total energy [eV]:                                         -319.04341280773701

  Atomic reference energy [eV]:                               316.72256923991051
  Heat of formation [kcal/mol]:                               -53.51992834659145

 ENERGY| Total FORCE_EVAL ( QS ) energy (a.u.):              -11.724630194831811


 Number of electrons:                                                          8
 Number of occupied orbitals:                                                  4
 Number of molecular orbitals:                                                 4

 Number of orbital functions:                                                  6
 Number of independent orbital functions:                                      6

 Extrapolation method: ASPC


 SCF WAVEFUNCTION OPTIMIZATION

  Step     Update method      Time    Convergence         Total energy    Change
  ------------------------------------------------------------------------------
     1 P_Mix/Diag. 0.40E+00    0.0     0.00018753       -11.7246900992 -1.17E+01
     2 P_Mix/Diag. 0.40E+00    0.0     0.00013012       -11.7246901304 -3.12E-08
     3 DIIS/Diag.  0.13E-04    0.0     0.00011745       -11.7246901516 -2.12E-08
     4 DIIS/Diag.  0.27E-05    0.0     0.00000465       -11.7246901892 -3.75E-08
     5 DIIS/Diag.  0.43E-05    0.0     0.00001052       -11.7246901891  7.02E-11
     6 DIIS/Diag.  0.76E-06    0.0     0.00000228       -11.7246901892 -1.10E-10
     7 DIIS/Diag.  0.11E-06    0.0     0.00000013       -11.7246901892 -3.33E-12

  *** SCF run converged in     7 steps ***


  Core-core repulsion energy [eV]:                            139.93579015311610
  Core Hamiltonian energy [eV]:                              -548.28276716918776
  Two-electron integral energy [eV]:                          178.60386335667886
  Electronic energy [eV]:                                    -458.98083549084839

  Total energy [eV]:                                         -319.04504533773223

  Atomic reference energy [eV]:                               316.72256923991051
  Heat of formation [kcal/mol]:                               -53.55757538561692

 ENERGY| Total FORCE_EVAL ( QS ) energy (a.u.):              -11.724690189207806


 Number of electrons:                                                          8
 Number of occupied orbitals:                                                  4
 Number of molecular orbitals:                                                 4

 Number of orbital functions:                                                  6
 Number of independent orbital functions:                                      6

 Extrapolation method: ASPC


 SCF WAVEFUNCTION OPTIMIZATION

  Step     Update method      Time    Convergence         Total energy    Change
  ------------------------------------------------------------------------------
     1 P_Mix/Diag. 0.40E+00    0.0     0.00020323       -11.7247183723 -1.17E+01
     2 P_Mix/Diag. 0.40E+00    0.0     0.00013714       -11.7247184156 -4.33E-08
     3 DIIS/Diag.  0.17E-04    0.0     0.00012059       -11.7247184450 -2.94E-08
     4 DIIS/Diag.  0.44E-05    0.0     0.00000792       -11.7247184967 -5.17E-08
     5 DIIS/Diag.  0.66E-05    0.0     0.00001938       -11.7247184965  1.39E-10
     6 DIIS/Diag.  0.14E-05    0.0     0.00000523       -11.7247184968 -2.39E-10
     7 DIIS/Diag.  0.13E-06    0.0     0.00000015       -11.7247184968 -1.08E-11

  *** SCF run converged in     7 steps ***


  Core-core repulsion energy [eV]:                            140.50579974816517
  Core Hamiltonian energy [eV]:                              -548.54224816329395
  Two-electron integral energy [eV]:                          177.98126557782561
  Electronic energy [eV]:                                    -459.55161537438119

  Total energy [eV]:                                         -319.04581562621598

  Atomic reference energy [eV]:                               316.72256923991051
  Heat of formation [kcal/mol]:                               -53.57533866144819

 ENERGY| Total FORCE_EVAL ( QS ) energy (a.u.):              -11.724718496789944


 Number of electrons:                                                          8
 Number of occupied orbitals:                                                  4
 Number of molecular orbitals:                                                 4

 Number of orbital functions:                                                  6
 Number of independent orbital functions:                                      6

 Extrapolation method: ASPC


 SCF WAVEFUNCTION OPTIMIZATION

  Step     Update method      Time    Convergence         Total energy    Change
  ------------------------------------------------------------------------------
     1 P_Mix/Diag. 0.40E+00    0.0     0.00025327       -11.7247486857 -1.17E+01
     2 P_Mix/Diag. 0.40E+00    0.0     0.00017714       -11.7247487471 -6.14E-08
     3 DIIS/Diag.  0.26E-04    0.0     0.00016711       -11.7247487892 -4.21E-08
     4 DIIS/Diag.  0.95E-05    0.0     0.00001901       -11.7247488653 -7.61E-08
     5 DIIS/Diag.  0.14E-04    0.0     0.00004646       -11.7247488647  5.53E-10
     6 DIIS/Diag.  0.28E-05    0.0     0.00001164       -11.7247488657 -9.63E-10
     7 DIIS/Diag.  0.95E-07    0.0     0.00000008       -11.7247488657 -3.99E-11

  *** SCF run converged in     7 steps ***


  Core-core repulsion energy [eV]:                            140.93047017620222
  Core Hamiltonian energy [eV]:                              -548.79046091317446
  Two-electron integral energy [eV]:                          177.62669746094704
  Electronic energy [eV]:                                    -459.97711218270103

  Total energy [eV]:                                         -319.04664200649876

  Atomic reference energy [eV]:                               316.72256923991051
  Heat of formation [kcal/mol]:                               -53.59439544499588

 ENERGY| Total FORCE_EVAL ( QS ) energy (a.u.):              -11.724748865707868


 Number of electrons:                                                          8
 Number of occupied orbitals:                                                  4
 Number of molecular orbitals:                                                 4

 Number of orbital functions:                                                  6
 Number of independent orbital functions:                                      6

 Extrapolation method: ASPC


 SCF WAVEFUNCTION OPTIMIZATION

  Step     Update method      Time    Convergence         Total energy    Change
  ------------------------------------------------------------------------------
     1 P_Mix/Diag. 0.40E+00    0.0     0.00032039       -11.7248056802 -1.17E+01
     2 P_Mix/Diag. 0.40E+00    0.0     0.00022784       -11.7248057600 -7.97E-08
     3 DIIS/Diag.  0.33E-04    0.0     0.00022604       -11.7248058152 -5.52E-08
     4 DIIS/Diag.  0.14E-04    0.0     0.00002713       -11.7248059176 -1.02E-07
     5 DIIS/Diag.  0.21E-04    0.0     0.00006630       -11.7248059165  1.07E-09
     6 DIIS/Diag.  0.38E-05    0.0     0.00001532       -11.7248059184 -1.85E-09
     7 DIIS/Diag.  0.13E-06    0.0     0.00000011       -11.7248059184 -6.74E-11

  *** SCF run converged in     7 steps ***


  Core-core repulsion energy [eV]:                            141.19134143362191
  Core Hamiltonian energy [eV]:                              -549.02244976844895
  Two-electron integral energy [eV]:                          177.56582768974599
  Electronic energy [eV]:                                    -460.23953592357594

  Total energy [eV]:                                         -319.04819448995408

  Atomic reference energy [eV]:                               316.72256923991051
  Heat of formation [kcal/mol]:                               -53.63019656681161

 ENERGY| Total FORCE_EVAL ( QS ) energy (a.u.):              -11.724805918427560


 Number of electrons:                                                          8
 Number of occupied orbitals:                                                  4
 Number of molecular orbitals:                                                 4

 Number of orbital functions:                                                  6
 Number of independent orbital functions:                                      6

 Extrapolation method: ASPC


 SCF WAVEFUNCTION OPTIMIZATION

  Step     Update method      Time    Convergence         Total energy    Change
  ------------------------------------------------------------------------------
     1 P_Mix/Diag. 0.40E+00    0.0     0.00037568       -11.7248963433 -1.17E+01
     2 P_Mix/Diag. 0.40E+00    0.0     0.00026810       -11.7248964355 -9.22E-08
     3 DIIS/Diag.  0.37E-04    0.0     0.00027002       -11.7248964999 -6.44E-08
     4 DIIS/Diag.  0.17E-04    0.0     0.00003212       -11.7248966215 -1.22E-07
     5 DIIS/Diag.  0.25E-04    0.0     0.00007865       -11.7248966200  1.49E-09
     6 DIIS/Diag.  0.43E-05    0.0     0.00001750       -11.7248966226 -2.58E-09
     7 DIIS/Diag.  0.15E-06    0.0     0.00000013       -11.7248966227 -8.84E-11

  *** SCF run converged in     7 steps ***


  Core-core repulsion energy [eV]:                            141.28284225044797
  Core Hamiltonian energy [eV]:                              -549.23541878175172
  Two-electron integral energy [eV]:                          177.80382770521135
  Electronic energy [eV]:                                    -460.33350492914605

  Total energy [eV]:                                         -319.05066267869807

  Atomic reference energy [eV]:                               316.72256923991051
  Heat of formation [kcal/mol]:                               -53.68711435591021

 ENERGY| Total FORCE_EVAL ( QS ) energy (a.u.):              -11.724896622698886


 Number of electrons:                                                          8
 Number of occupied orbitals:                                                  4
 Number of molecular orbitals:                                                 4

 Number of orbital functions:                                                  6
 Number of independent orbital functions:                                      6

 Extrapolation method: ASPC


 SCF WAVEFUNCTION OPTIMIZATION

  Step     Update method      Time    Convergence         Total energy    Change
  ------------------------------------------------------------------------------
     1 P_Mix/Diag. 0.40E+00    0.0     0.00039794       -11.7250082170 -1.17E+01
     2 P_Mix/Diag. 0.40E+00    0.0     0.00028437       -11.7250083113 -9.43E-08
     3 DIIS/Diag.  0.38E-04    0.0     0.00028805       -11.7250083775 -6.62E-08
     4 DIIS/Diag.  0.17E-04    0.0     0.00003332       -11.7250085037 -1.26E-07
     5 DIIS/Diag.  0.27E-04    0.0     0.00008189       -11.7250085021  1.63E-09
     6 DIIS/Diag.  0.45E-05    0.0     0.00001821       -11.7250085049 -2.85E-09
     7 DIIS/Diag.  0.16E-06    0.0     0.00000014       -11.7250085050 -9.73E-11

  *** SCF run converged in     7 steps ***


  Core-core repulsion energy [eV]:                            141.21248569726896
  Core Hamiltonian energy [eV]:                              -549.42865927139610
  Two-electron integral energy [eV]:                          178.32493284608125
  Electronic energy [eV]:                                    -460.26619284835544

  Total energy [eV]:                                         -319.05370715108643

  Atomic reference energy [eV]:                               316.72256923991051
  Heat of formation [kcal/mol]:                               -53.75732156260840

 ENERGY| Total FORCE_EVAL ( QS ) energy (a.u.):              -11.725008505005389


 Number of electrons:                                                          8
 Number of occupied orbitals:                                                  4
 Number of molecular orbitals:                                                 4

 Number of orbital functions:                                                  6
 Number of independent orbital functions:                                      6

 Extrapolation method: ASPC


 SCF WAVEFUNCTION OPTIMIZATION

  Step     Update method      Time    Convergence         Total energy    Change
  ------------------------------------------------------------------------------
     1 P_Mix/Diag. 0.40E+00    0.0     0.00038751       -11.7251141094 -1.17E+01
     2 P_Mix/Diag. 0.40E+00    0.0     0.00027695       -11.7251141949 -8.54E-08
     3 DIIS/Diag.  0.36E-04    0.0     0.00028045       -11.7251142550 -6.01E-08
     4 DIIS/Diag.  0.16E-04    0.0     0.00003120       -11.7251143702 -1.15E-07
     5 DIIS/Diag.  0.25E-04    0.0     0.00007704       -11.7251143687  1.48E-09
     6 DIIS/Diag.  0.43E-05    0.0     0.00001757       -11.7251143713 -2.60E-09
     7 DIIS/Diag.  0.17E-06    0.0     0.00000016       -11.7251143714 -9.27E-11

  *** SCF run converged in     7 steps ***


  Core-core repulsion energy [eV]:                            140.99979164353900
  Core Hamiltonian energy [eV]:                              -549.60317692474507
  Two-electron integral energy [eV]:                          179.09359471909781
  Electronic energy [eV]:                                    -460.05637956519615

  Total energy [eV]:                                         -319.05658792165724

  Atomic reference energy [eV]:                               316.72256923991051
  Heat of formation [kcal/mol]:                               -53.82375371541161

 ENERGY| Total FORCE_EVAL ( QS ) energy (a.u.):              -11.725114371380517


 Number of electrons:                                                          8
 Number of occupied orbitals:                                                  4
 Number of molecular orbitals:                                                 4

 Number of orbital functions:                                                  6
 Number of independent orbital functions:                                      6

 Extrapolation method: ASPC


 SCF WAVEFUNCTION OPTIMIZATION

  Step     Update method      Time    Convergence         Total energy    Change
  ------------------------------------------------------------------------------
     1 P_Mix/Diag. 0.40E+00    0.0     0.00034781       -11.7251809456 -1.17E+01
     2 P_Mix/Diag. 0.40E+00    0.0     0.00024835       -11.7251810146 -6.90E-08
     3 DIIS/Diag.  0.31E-04    0.0     0.00025000       -11.7251810632 -4.86E-08
     4 DIIS/Diag.  0.14E-04    0.0     0.00002634       -11.7251811562 -9.29E-08
     5 DIIS/Diag.  0.22E-04    0.0     0.00006537       -11.7251811551  1.11E-09
     6 DIIS/Diag.  0.38E-05    0.0     0.00001567       -11.7251811570 -1.96E-09
     7 DIIS/Diag.  0.19E-06    0.0     0.00000017       -11.7251811571 -7.58E-11

  *** SCF run converged in     7 steps ***


  Core-core repulsion energy [eV]:                            140.67415145018256
  Core Hamiltonian energy [eV]:                              -549.76118463210582
  Two-electron integral energy [eV]:                          180.05725585754524
  Electronic energy [eV]:                                    -459.73255670333316

  Total energy [eV]:                                         -319.05840525315057

  Atomic reference energy [eV]:                               316.72256923991051
  Heat of formation [kcal/mol]:                               -53.86566237856116

 ENERGY| Total FORCE_EVAL ( QS ) energy (a.u.):              -11.725181157086935


 *******************************************************************************
 ENSEMBLE TYPE                =                                              NVE
 STEP NUMBER                  =                                               20
 TIME [fs]                    =                                        10.000000
 CONSERVED QUANTITY [hartree] =                              -0.117219245036E+02

                                              INSTANTANEOUS             AVERAGES
 CPU TIME [s]                 =                        0.01                 0.01
 ENERGY DRIFT PER ATOM [K]    =          0.854480494102E-01   0.607834833290E+00
 POTENTIAL ENERGY[hartree]    =         -0.117251811571E+02  -0.117242805474E+02
 KINETIC ENERGY [hartree]     =          0.325665346216E-02   0.236120921758E-02
 TEMPERATURE [K]              =                     342.790              248.537
 *******************************************************************************


 Number of electrons:                                                          8
 Number of occupied orbitals:                                                  4
 Number of molecular orbitals:                                                 4

 Number of orbital functions:                                                  6
 Number of independent orbital functions:                                      6

 Extrapolation method: ASPC


 SCF WAVEFUNCTION OPTIMIZATION

  Step     Update method      Time    Convergence         Total energy    Change
  ------------------------------------------------------------------------------
     1 P_Mix/Diag. 0.40E+00    0.0     0.00028538       -11.7251795191 -1.17E+01
     2 P_Mix/Diag. 0.40E+00    0.0     0.00020336       -11.7251795697 -5.06E-08
     3 DIIS/Diag.  0.25E-04    0.0     0.00020223       -11.7251796053 -3.56E-08
     4 DIIS/Diag.  0.11E-04    0.0     0.00001968       -11.7251796727 -6.74E-08
     5 DIIS/Diag.  0.17E-04    0.0     0.00004901       -11.7251796720  6.64E-10
     6 DIIS/Diag.  0.31E-05    0.0     0.00001260       -11.7251796732 -1.18E-09
     7 DIIS/Diag.  0.20E-06    0.0     0.00000016       -11.7251796732 -5.14E-11

  *** SCF run converged in     7 steps ***


  Core-core repulsion energy [eV]:                            140.27197928894884
  Core Hamiltonian energy [eV]:                              -549.90556261172821
  Two-electron integral energy [eV]:                          181.15043689409976
  Electronic energy [eV]:                                    -459.33034416467837

  Total energy [eV]:                                         -319.05836487572952

  Atomic reference energy [eV]:                               316.72256923991051
  Heat of formation [kcal/mol]:                               -53.86473125303831

 ENERGY| Total FORCE_EVAL ( QS ) energy (a.u.):              -11.725179673243952


 Number of electrons:                                                          8
 Number of occupied orbitals:                                                  4
 Number of molecular orbitals:                                                 4

 Number of orbital functions:                                                  6
 Number of independent orbital functions:                                      6

 Extrapolation method: ASPC


 SCF WAVEFUNCTION OPTIMIZATION

  Step     Update method      Time    Convergence         Total energy    Change
  ------------------------------------------------------------------------------
     1 P_Mix/Diag. 0.40E+00    0.0     0.00020829       -11.7250923340 -1.17E+01
     2 P_Mix/Diag. 0.40E+00    0.0     0.00014790       -11.7250923695 -3.55E-08
     3 DIIS/Diag.  0.17E-04    0.0     0.00014425       -11.7250923944 -2.48E-08
     4 DIIS/Diag.  0.76E-05    0.0     0.00001231       -11.7250924406 -4.63E-08
     5 DIIS/Diag.  0.12E-04    0.0     0.00003057       -11.7250924403  2.99E-10
     6 DIIS/Diag.  0.22E-05    0.0     0.00000830       -11.7250924409 -5.27E-10
     7 DIIS/Diag.  0.22E-06    0.0     0.00000020       -11.7250924409 -2.52E-11

  *** SCF run converged in     7 steps ***


  Core-core repulsion energy [eV]:                            139.83353984141689
  Core Hamiltonian energy [eV]:                              -550.03936397721088
  Two-electron integral energy [eV]:                          182.29966594590601
  Electronic energy [eV]:                                    -458.88953100425789

  Total energy [eV]:                                         -319.05599116284100

  Atomic reference energy [eV]:                               316.72256923991051
  Heat of formation [kcal/mol]:                               -53.80999212909529

 ENERGY| Total FORCE_EVAL ( QS ) energy (a.u.):              -11.725092440896614


 Number of electrons:                                                          8
 Number of occupied orbitals:                                                  4
 Number of molecular orbitals:                                                 4

 Number of orbital functions:                                                  6
 Number of independent orbital functions:                                      6

 Extrapolation method: ASPC


 SCF WAVEFUNCTION OPTIMIZATION

  Step     Update method      Time    Convergence         Total energy    Change
  ------------------------------------------------------------------------------
     1 P_Mix/Diag. 0.40E+00    0.0     0.00016733       -11.7249179070 -1.17E+01
     2 P_Mix/Diag. 0.40E+00    0.0     0.00011508       -11.7249179339 -2.69E-08
     3 DIIS/Diag.  0.13E-04    0.0     0.00010198       -11.7249179526 -1.87E-08
     4 DIIS/Diag.  0.41E-05    0.0     0.00000650       -11.7249179867 -3.41E-08
     5 DIIS/Diag.  0.66E-05    0.0     0.00001464       -11.7249179866  9.92E-11
     6 DIIS/Diag.  0.12E-05    0.0     0.00000295       -11.7249179868 -1.61E-10
     7 DIIS/Diag.  0.19E-06    0.0     0.00000020       -11.7249179868 -5.46E-12

  *** SCF run converged in     7 steps ***


  Core-core repulsion energy [eV]:                            139.39980830921152
  Core Hamiltonian energy [eV]:                              -550.16539165977144
  Two-electron integral energy [eV]:                          183.42867864996140
  Electronic energy [eV]:                                    -458.45105233479075

  Total energy [eV]:                                         -319.05124402557925

  Atomic reference energy [eV]:                               316.72256923991051
  Heat of formation [kcal/mol]:                               -53.70052053453347

 ENERGY| Total FORCE_EVAL ( QS ) energy (a.u.):              -11.724917986804627


 Number of electrons:                                                          8
 Number of occupied orbitals:                                                  4
 Number of molecular orbitals:                                                 4

 Number of orbital functions:                                                  6
 Number of independent orbital functions:                                      6

 Extrapolation method: ASPC


 SCF WAVEFUNCTION OPTIMIZATION

  Step     Update method      Time    Convergence         Total energy    Change
  ------------------------------------------------------------------------------
     1 P_Mix/Diag. 0.40E+00    0.0     0.00014574       -11.7246711861 -1.17E+01
     2 P_Mix/Diag. 0.40E+00    0.0     0.00009916       -11.7246712114 -2.53E-08
     3 DIIS/Diag.  0.16E-04    0.0     0.00008857       -11.7246712289 -1.75E-08
     4 DIIS/Diag.  0.30E-05    0.0     0.00000353       -11.7246712605 -3.16E-08
     5 DIIS/Diag.  0.12E-05    0.0     0.00000372       -11.7246712605 -2.80E-11
     6 DIIS/Diag.  0.17E-05    0.0     0.00000265       -11.7246712605 -5.85E-12
     7 DIIS/Diag.  0.18E-05    0.0     0.00000129       -11.7246712605  1.56E-13
     8 DIIS/Diag.  0.10E-06    0.0     0.00000016       -11.7246712605 -3.60E-12

  *** SCF run converged in     8 steps ***


  Core-core repulsion energy [eV]:                            139.00963055960040
  Core Hamiltonian energy [eV]:                              -550.28584353274221
  Two-electron integral energy [eV]:                          184.46336542302458
  Electronic energy [eV]:                                    -458.05416082122997

  Total energy [eV]:                                         -319.04453026162963

  Atomic reference energy [eV]:                               316.72256923991051
  Heat of formation [kcal/mol]:                               -53.54569744757379

 ENERGY| Total FORCE_EVAL ( QS ) energy (a.u.):              -11.724671260508503


 Number of electrons:                                                          8
 Number of occupied orbitals:                                                  4
 Number of molecular orbitals:                                                 4

 Number of orbital functions:                                                  6
 Number of independent orbital functions:                                      6

 Extrapolation method: ASPC


 SCF WAVEFUNCTION OPTIMIZATION

  Step     Update method      Time    Convergence         Total energy    Change
  ------------------------------------------------------------------------------
     1 P_Mix/Diag. 0.40E+00    0.0     0.00016922       -11.7243806631 -1.17E+01
     2 P_Mix/Diag. 0.40E+00    0.0     0.00011609       -11.7243806923 -2.91E-08
     3 DIIS/Diag.  0.17E-04    0.0     0.00010238       -11.7243807124 -2.01E-08
     4 DIIS/Diag.  0.53E-05    0.0     0.00000785       -11.7243807486 -3.63E-08
     5 DIIS/Diag.  0.80E-05    0.0     0.00001954       -11.7243807485  1.48E-10
     6 DIIS/Diag.  0.16E-05    0.0     0.00000501       -11.7243807487 -2.55E-10
     7 DIIS/Diag.  0.24E-06    0.0     0.00000025       -11.7243807487 -1.12E-11

  *** SCF run converged in     7 steps ***


  Core-core repulsion energy [eV]:                            138.69734476855086
  Core Hamiltonian energy [eV]:                              -550.40223872686272
  Two-electron integral energy [eV]:                          185.33653784781410
  Electronic energy [eV]:                                    -457.73396980295576

  Total energy [eV]:                                         -319.03662503440484

  Atomic reference energy [eV]:                               316.72256923991051
  Heat of formation [kcal/mol]:                               -53.36339856259164

 ENERGY| Total FORCE_EVAL ( QS ) energy (a.u.):              -11.724380748740929


 Number of electrons:                                                          8
 Number of occupied orbitals:                                                  4
 Number of molecular orbitals:                                                 4

 Number of orbital functions:                                                  6
 Number of independent orbital functions:                                      6

 Extrapolation method: ASPC


 SCF WAVEFUNCTION OPTIMIZATION

  Step     Update method      Time    Convergence         Total energy    Change
  ------------------------------------------------------------------------------
     1 P_Mix/Diag. 0.40E+00    0.0     0.00019518       -11.7240831920 -1.17E+01
     2 P_Mix/Diag. 0.40E+00    0.0     0.00013566       -11.7240832277 -3.57E-08
     3 DIIS/Diag.  0.17E-04    0.0     0.00012586       -11.7240832522 -2.45E-08
     4 DIIS/Diag.  0.63E-05    0.0     0.00001084       -11.7240832964 -4.43E-08
     5 DIIS/Diag.  0.93E-05    0.0     0.00002736       -11.7240832962  2.38E-10
     6 DIIS/Diag.  0.20E-05    0.0     0.00000752       -11.7240832966 -4.24E-10
     7 DIIS/Diag.  0.17E-06    0.0     0.00000019       -11.7240832966 -2.08E-11

  *** SCF run converged in     7 steps ***


  Core-core repulsion energy [eV]:                            138.49094247018564
  Core Hamiltonian energy [eV]:                              -550.51500749626905
  Two-electron integral energy [eV]:                          185.99106814986015
  Electronic energy [eV]:                                    -457.51947342133894

  Total energy [eV]:                                         -319.02853095115330

  Atomic reference energy [eV]:                               316.72256923991051
  Heat of formation [kcal/mol]:                               -53.17674455382556

 ENERGY| Total FORCE_EVAL ( QS ) energy (a.u.):              -11.724083296641638


 Number of electrons:                                                          8
 Number of occupied orbitals:                                                  4
 Number of molecular orbitals:                                                 4

 Number of orbital functions:                                                  6
 Number of independent orbital functions:                                      6

 Extrapolation method: ASPC


 SCF WAVEFUNCTION OPTIMIZATION

  Step     Update method      Time    Convergence         Total energy    Change
  ------------------------------------------------------------------------------
     1 P_Mix/Diag. 0.40E+00    0.0     0.00021660       -11.7238176195 -1.17E+01
     2 P_Mix/Diag. 0.40E+00    0.0     0.00015059       -11.7238176619 -4.23E-08
     3 DIIS/Diag.  0.18E-04    0.0     0.00013962       -11.7238176909 -2.91E-08
     4 DIIS/Diag.  0.62E-05    0.0     0.00001176       -11.7238177432 -5.23E-08
     5 DIIS/Diag.  0.89E-05    0.0     0.00002982       -11.7238177429  2.78E-10
     6 DIIS/Diag.  0.20E-05    0.0     0.00000857       -11.7238177434 -5.00E-10
     7 DIIS/Diag.  0.11E-06    0.0     0.00000015       -11.7238177434 -2.63E-11

  *** SCF run converged in     7 steps ***


  Core-core repulsion energy [eV]:                            138.41076338827489
  Core Hamiltonian energy [eV]:                              -550.62353487876362
  Two-electron integral energy [eV]:                          186.38293321850131
  Electronic energy [eV]:                                    -457.43206826951297

  Total energy [eV]:                                         -319.02130488123811

  Atomic reference energy [eV]:                               316.72256923991051
  Heat of formation [kcal/mol]:                               -53.01010740970663

 ENERGY| Total FORCE_EVAL ( QS ) energy (a.u.):              -11.723817743446912


 Number of electrons:                                                          8
 Number of occupied orbitals:                                                  4
 Number of molecular orbitals:                                                 4

 Number of orbital functions:                                                  6
 Number of independent orbital functions:                                      6

 Extrapolation method: ASPC


 SCF WAVEFUNCTION OPTIMIZATION

  Step     Update method      Time    Convergence         Total energy    Change
  ------------------------------------------------------------------------------
     1 P_Mix/Diag. 0.40E+00    0.0     0.00021908       -11.7236182949 -1.17E+01
     2 P_Mix/Diag. 0.40E+00    0.0     0.00015177       -11.7236183421 -4.72E-08
     3 DIIS/Diag.  0.21E-04    0.0     0.00013866       -11.7236183744 -3.23E-08
     4 DIIS/Diag.  0.61E-05    0.0     0.00001028       -11.7236184322 -5.78E-08
     5 DIIS/Diag.  0.89E-05    0.0     0.00002612       -11.7236184320  2.29E-10
     6 DIIS/Diag.  0.20E-05    0.0     0.00000784       -11.7236184324 -4.14E-10
     7 DIIS/Diag.  0.17E-06    0.0     0.00000018       -11.7236184324 -2.34E-11

  *** SCF run converged in     7 steps ***


  Core-core repulsion energy [eV]:                            138.46868611176782
  Core Hamiltonian energy [eV]:                              -550.72621861474306
  Two-electron integral energy [eV]:                          186.48330230073361
  Electronic energy [eV]:                                    -457.48456746437620

  Total energy [eV]:                                         -319.01588135260840

  Atomic reference energy [eV]:                               316.72256923991051
  Heat of formation [kcal/mol]:                               -52.88503785841448

 ENERGY| Total FORCE_EVAL ( QS ) energy (a.u.):              -11.723618432428459


 Number of electrons:                                                          8
 Number of occupied orbitals:                                                  4
 Number of molecular orbitals:                                                 4

 Number of orbital functions:                                                  6
 Number of independent orbital functions:                                      6

 Extrapolation method: ASPC


 SCF WAVEFUNCTION OPTIMIZATION

  Step     Update method      Time    Convergence         Total energy    Change
  ------------------------------------------------------------------------------
     1 P_Mix/Diag. 0.40E+00    0.0     0.00020625       -11.7235094095 -1.17E+01
     2 P_Mix/Diag. 0.40E+00    0.0     0.00014296       -11.7235094590 -4.95E-08
     3 DIIS/Diag.  0.22E-04    0.0     0.00012956       -11.7235094929 -3.39E-08
     4 DIIS/Diag.  0.49E-05    0.0     0.00000666       -11.7235095530 -6.01E-08
     5 DIIS/Diag.  0.73E-05    0.0     0.00001680       -11.7235095528  1.24E-10
     6 DIIS/Diag.  0.15E-05    0.0     0.00000490       -11.7235095531 -2.18E-10
     7 DIIS/Diag.  0.24E-06    0.0     0.00000025       -11.7235095531 -1.18E-11

  *** SCF run converged in     7 steps ***


  Core-core repulsion energy [eV]:                            138.66775005123887
  Core Hamiltonian energy [eV]:                              -550.82061066016945
  Two-electron integral energy [eV]:                          186.27988402909048
  Electronic energy [eV]:                                    -457.68066864562422

  Total energy [eV]:                                         -319.01291859438533

  Atomic reference energy [eV]:                               316.72256923991051
  Heat of formation [kcal/mol]:                               -52.81671502528326

 ENERGY| Total FORCE_EVAL ( QS ) energy (a.u.):              -11.723509553062478


 Number of electrons:                                                          8
 Number of occupied orbitals:                                                  4
 Number of molecular orbitals:                                                 4

 Number of orbital functions:                                                  6
 Number of independent orbital functions:                                      6

 Extrapolation method: ASPC


 SCF WAVEFUNCTION OPTIMIZATION

  Step     Update method      Time    Convergence         Total energy    Change
  ------------------------------------------------------------------------------
     1 P_Mix/Diag. 0.40E+00    0.0     0.00021478       -11.7235009859 -1.17E+01
     2 P_Mix/Diag. 0.40E+00    0.0     0.00014704       -11.7235010356 -4.97E-08
     3 DIIS/Diag.  0.22E-04    0.0     0.00012787       -11.7235010695 -3.40E-08
     4 DIIS/Diag.  0.27E-05    0.0     0.00000350       -11.7235011297 -6.02E-08
     5 DIIS/Diag.  0.11E-05    0.0     0.00000207       -11.7235011297 -2.09E-11
     6 DIIS/Diag.  0.80E-06    0.0     0.00000115       -11.7235011297 -4.32E-12
     7 DIIS/Diag.  0.88E-06    0.0     0.00000068       -11.7235011297 -2.36E-13
     8 DIIS/Diag.  0.84E-07    0.0     0.00000012       -11.7235011297 -6.84E-13

  *** SCF run converged in     8 steps ***


  Core-core repulsion energy [eV]:                            139.00213248696593
  Core Hamiltonian energy [eV]:                              -550.90371897188140
  Two-electron integral energy [eV]:                          185.77779420105753
  Electronic energy [eV]:                                    -458.01482187135264

  Total energy [eV]:                                         -319.01268938438670

  Atomic reference energy [eV]:                               316.72256923991051
  Heat of formation [kcal/mol]:                               -52.81142931672817

 ENERGY| Total FORCE_EVAL ( QS ) energy (a.u.):              -11.723501129749598


 *******************************************************************************
 ENSEMBLE TYPE                =                                              NVE
 STEP NUMBER                  =                                               30
 TIME [fs]                    =                                        15.000000
 CONSERVED QUANTITY [hartree] =                              -0.117219145228E+02

                                              INSTANTANEOUS             AVERAGES
 CPU TIME [s]                 =                        0.02                 0.01
 ENERGY DRIFT PER ATOM [K]    =          0.113601014937E+01   0.598107982730E+00
 POTENTIAL ENERGY[hartree]    =         -0.117235011297E+02  -0.117242794404E+02
 KINETIC ENERGY [hartree]     =          0.158660693336E-02   0.235994234732E-02
 TEMPERATURE [K]              =                     167.003              248.403
 *******************************************************************************


 Number of electrons:                                                          8
 Number of occupied orbitals:                                                  4
 Number of molecular orbitals:                                                 4

 Number of orbital functions:                                                  6
 Number of independent orbital functions:                                      6

 Extrapolation method: ASPC


 SCF WAVEFUNCTION OPTIMIZATION

  Step     Update method      Time    Convergence         Total energy    Change
  ------------------------------------------------------------------------------
     1 P_Mix/Diag. 0.40E+00    0.0     0.00021040       -11.7235871431 -1.17E+01
     2 P_Mix/Diag. 0.40E+00    0.0     0.00014175       -11.7235871919 -4.89E-08
     3 DIIS/Diag.  0.19E-04    0.0     0.00011729       -11.7235872256 -3.36E-08
     4 DIIS/Diag.  0.52E-05    0.0     0.00000731       -11.7235872858 -6.03E-08
     5 DIIS/Diag.  0.80E-05    0.0     0.00001682       -11.7235872857  1.22E-10
     6 DIIS/Diag.  0.16E-05    0.0     0.00000427       -11.7235872859 -2.06E-10
     7 DIIS/Diag.  0.25E-06    0.0     0.00000026       -11.7235872859 -9.62E-12

  *** SCF run converged in     7 steps ***


  Core-core repulsion energy [eV]:                            139.45741562774424
  Core Hamiltonian energy [eV]:                              -550.97233242523714
  Two-electron integral energy [eV]:                          184.99976596873196
  Electronic energy [eV]:                                    -458.47244944087117

  Total energy [eV]:                                         -319.01503381312688

  Atomic reference energy [eV]:                               316.72256923991051
  Heat of formation [kcal/mol]:                               -52.86549313211347

 ENERGY| Total FORCE_EVAL ( QS ) energy (a.u.):              -11.723587285924387


 Number of electrons:                                                          8
 Number of occupied orbitals:                                                  4
 Number of molecular orbitals:                                                 4

 Number of orbital functions:                                                  6
 Number of independent orbital functions:                                      6

 Extrapolation method: ASPC


 SCF WAVEFUNCTION OPTIMIZATION

  Step     Update method      Time    Convergence         Total energy    Change
  ------------------------------------------------------------------------------
     1 P_Mix/Diag. 0.40E+00    0.0     0.00019373       -11.7237470432 -1.17E+01
     2 P_Mix/Diag. 0.40E+00    0.0     0.00012970       -11.7237470920 -4.88E-08
     3 DIIS/Diag.  0.16E-04    0.0     0.00013738       -11.7237471260 -3.40E-08
     4 DIIS/Diag.  0.86E-05    0.0     0.00001391       -11.7237471891 -6.31E-08
     5 DIIS/Diag.  0.13E-04    0.0     0.00003502       -11.7237471887  4.37E-10
     6 DIIS/Diag.  0.28E-05    0.0     0.00001065       -11.7237471895 -7.90E-10
     7 DIIS/Diag.  0.25E-06    0.0     0.00000022       -11.7237471895 -4.52E-11

  *** SCF run converged in     7 steps ***


  Core-core repulsion energy [eV]:                            140.01110195316505
  Core Hamiltonian energy [eV]:                              -551.02322654890349
  Two-electron integral energy [eV]:                          183.98547917012976
  Electronic energy [eV]:                                    -459.03048696383860

  Total energy [eV]:                                         -319.01938501067360

  Atomic reference energy [eV]:                               316.72256923991051
  Heat of formation [kcal/mol]:                               -52.96583413921493

 ENERGY| Total FORCE_EVAL ( QS ) energy (a.u.):              -11.723747189498908


 Number of electrons:                                                          8
 Number of occupied orbitals:                                                  4
 Number of molecular orbitals:                                                 4

 Number of orbital functions:                                                  6
 Number of independent orbital functions:                                      6

 Extrapolation method: ASPC


 SCF WAVEFUNCTION OPTIMIZATION

  Step     Update method      Time    Convergence         Total energy    Change
  ------------------------------------------------------------------------------
     1 P_Mix/Diag. 0.40E+00    0.0     0.00024508       -11.7239486443 -1.17E+01
     2 P_Mix/Diag. 0.40E+00    0.0     0.00017847       -11.7239486953 -5.10E-08
     3 DIIS/Diag.  0.18E-04    0.0     0.00018914       -11.7239487316 -3.63E-08
     4 DIIS/Diag.  0.12E-04    0.0     0.00002138       -11.7239488024 -7.08E-08
     5 DIIS/Diag.  0.18E-04    0.0     0.00005404       -11.7239488014  9.83E-10
     6 DIIS/Diag.  0.36E-05    0.0     0.00001407       -11.7239488032 -1.77E-09
     7 DIIS/Diag.  0.23E-06    0.0     0.00000043       -11.7239488033 -7.74E-11
     8 DIIS/Diag.  0.40E-07    0.0     0.00000018       -11.7239488033 -2.31E-13

  *** SCF run converged in     8 steps ***


  Core-core repulsion energy [eV]:                            140.63337445568743
  Core Hamiltonian energy [eV]:                              -551.05371502047808
  Two-electron integral energy [eV]:                          182.79093872771756
  Electronic energy [eV]:                                    -459.65824565661927

  Total energy [eV]:                                         -319.02487120093184

  Atomic reference energy [eV]:                               316.72256923991051
  Heat of formation [kcal/mol]:                               -53.09234870210347

 ENERGY| Total FORCE_EVAL ( QS ) energy (a.u.):              -11.723948803289758


 Number of electrons:                                                          8
 Number of occupied orbitals:                                                  4
 Number of molecular orbitals:                                                 4

 Number of orbital functions:                                                  6
 Number of independent orbital functions:                                      6

 Extrapolation method: ASPC


 SCF WAVEFUNCTION OPTIMIZATION

  Step     Update method      Time    Convergence         Total energy    Change
  ------------------------------------------------------------------------------
     1 P_Mix/Diag. 0.40E+00    0.0     0.00030668       -11.7241549664 -1.17E+01
     2 P_Mix/Diag. 0.40E+00    0.0     0.00022412       -11.7241550231 -5.67E-08
     3 DIIS/Diag.  0.25E-04    0.0     0.00024676       -11.7241550643 -4.12E-08
     4 DIIS/Diag.  0.15E-04    0.0     0.00002918       -11.7241551496 -8.53E-08
     5 DIIS/Diag.  0.23E-04    0.0     0.00007306       -11.7241551479  1.74E-09
     6 DIIS/Diag.  0.37E-05    0.0     0.00001501       -11.7241551509 -3.05E-09
     7 DIIS/Diag.  0.27E-06    0.0     0.00000047       -11.7241551510 -8.90E-11
     8 DIIS/Diag.  0.39E-07    0.0     0.00000002       -11.7241551510 -2.33E-13

  *** SCF run converged in     8 steps ***


  Core-core repulsion energy [eV]:                            141.28816033801223
  Core Hamiltonian energy [eV]:                              -551.06162441653055
  Two-electron integral energy [eV]:                          181.48595574159498
  Electronic energy [eV]:                                    -460.31864654573315

  Total energy [eV]:                                         -319.03048620772086

  Atomic reference energy [eV]:                               316.72256923991051
  Heat of formation [kcal/mol]:                               -53.22183384499792

[...]
     3 DIIS/Diag.  0.13E-04    0.0     0.00014432       -11.7252992295 -2.26E-08
     4 DIIS/Diag.  0.81E-05    0.0     0.00000933       -11.7252992727 -4.32E-08
     5 DIIS/Diag.  0.12E-04    0.0     0.00002276       -11.7252992722  4.58E-10
     6 DIIS/Diag.  0.22E-05    0.0     0.00000533       -11.7252992730 -7.98E-10
     7 DIIS/Diag.  0.15E-06    0.0     0.00000009       -11.7252992730 -2.98E-11

  *** SCF run converged in     7 steps ***


  Core-core repulsion energy [eV]:                            139.22634094584899
  Core Hamiltonian energy [eV]:                              -548.50106853532327
  Two-electron integral energy [eV]:                          180.42621647640439
  Electronic energy [eV]:                                    -458.28796029712106

  Total energy [eV]:                                         -319.06161935127199

  Atomic reference energy [eV]:                               316.72256923991051
  Heat of formation [kcal/mol]:                               -53.93978124789896

 ENERGY| Total FORCE_EVAL ( QS ) energy (a.u.):              -11.725299273024607


 Number of electrons:                                                          8
 Number of occupied orbitals:                                                  4
 Number of molecular orbitals:                                                 4

 Number of orbital functions:                                                  6
 Number of independent orbital functions:                                      6

 Extrapolation method: ASPC


 SCF WAVEFUNCTION OPTIMIZATION

  Step     Update method      Time    Convergence         Total energy    Change
  ------------------------------------------------------------------------------
     1 P_Mix/Diag. 0.40E+00    0.0     0.00029482       -11.7251666955 -1.17E+01
     2 P_Mix/Diag. 0.40E+00    0.0     0.00021476       -11.7251667394 -4.38E-08
     3 DIIS/Diag.  0.23E-04    0.0     0.00023650       -11.7251667714 -3.20E-08
     4 DIIS/Diag.  0.13E-04    0.0     0.00001799       -11.7251668388 -6.74E-08
     5 DIIS/Diag.  0.20E-04    0.0     0.00004324       -11.7251668375  1.31E-09
     6 DIIS/Diag.  0.26E-05    0.0     0.00000662       -11.7251668396 -2.16E-09
     7 DIIS/Diag.  0.13E-06    0.0     0.00000012       -11.7251668397 -3.79E-11

  *** SCF run converged in     7 steps ***


  Core-core repulsion energy [eV]:                            138.13390265272554
  Core Hamiltonian energy [eV]:                              -548.17357420728558
  Two-electron integral energy [eV]:                          181.96331179622737
  Electronic energy [eV]:                                    -457.19191830917191

  Total energy [eV]:                                         -319.05801565644646

  Atomic reference energy [eV]:                               316.72256923991051
  Heat of formation [kcal/mol]:                               -53.85667806441833

 ENERGY| Total FORCE_EVAL ( QS ) energy (a.u.):              -11.725166839670813


 Number of electrons:                                                          8
 Number of occupied orbitals:                                                  4
 Number of molecular orbitals:                                                 4

 Number of orbital functions:                                                  6
 Number of independent orbital functions:                                      6

 Extrapolation method: ASPC


 SCF WAVEFUNCTION OPTIMIZATION

  Step     Update method      Time    Convergence         Total energy    Change
  ------------------------------------------------------------------------------
     1 P_Mix/Diag. 0.40E+00    0.0     0.00037880       -11.7248611518 -1.17E+01
     2 P_Mix/Diag. 0.40E+00    0.0     0.00027632       -11.7248612166 -6.47E-08
     3 DIIS/Diag.  0.32E-04    0.0     0.00031295       -11.7248612645 -4.80E-08
     4 DIIS/Diag.  0.16E-04    0.0     0.00002420       -11.7248613695 -1.05E-07
     5 DIIS/Diag.  0.26E-04    0.0     0.00005557       -11.7248613673  2.26E-09
     6 DIIS/Diag.  0.25E-05    0.0     0.00000661       -11.7248613708 -3.56E-09
     7 DIIS/Diag.  0.13E-06    0.0     0.00000013       -11.7248613709 -3.89E-11

  *** SCF run converged in     7 steps ***


  Core-core repulsion energy [eV]:                            137.06894569734450
  Core Hamiltonian energy [eV]:                              -547.86018472932699
  Two-electron integral energy [eV]:                          183.48307120818691
  Electronic energy [eV]:                                    -456.11864912523362

  Total energy [eV]:                                         -319.04970342788903

  Atomic reference energy [eV]:                               316.72256923991051
  Heat of formation [kcal/mol]:                               -53.66499350499392

 ENERGY| Total FORCE_EVAL ( QS ) energy (a.u.):              -11.724861370878736


 Number of electrons:                                                          8
 Number of occupied orbitals:                                                  4
 Number of molecular orbitals:                                                 4

 Number of orbital functions:                                                  6
 Number of independent orbital functions:                                      6

 Extrapolation method: ASPC


 SCF WAVEFUNCTION OPTIMIZATION

  Step     Update method      Time    Convergence         Total energy    Change
  ------------------------------------------------------------------------------
     1 P_Mix/Diag. 0.40E+00    0.0     0.00044163       -11.7244316969 -1.17E+01
     2 P_Mix/Diag. 0.40E+00    0.0     0.00032242       -11.7244317869 -9.00E-08
     3 DIIS/Diag.  0.38E-04    0.0     0.00036966       -11.7244318538 -6.69E-08
     4 DIIS/Diag.  0.19E-04    0.0     0.00003091       -11.7244320018 -1.48E-07
     5 DIIS/Diag.  0.32E-04    0.0     0.00006885       -11.7244319986  3.21E-09
     6 DIIS/Diag.  0.28E-05    0.0     0.00000684       -11.7244320035 -4.93E-09
     7 DIIS/Diag.  0.13E-06    0.0     0.00000014       -11.7244320036 -4.17E-11

  *** SCF run converged in     7 steps ***


  Core-core repulsion energy [eV]:                            136.08919119154319
  Core Hamiltonian energy [eV]:                              -547.57441792332145
  Two-electron integral energy [eV]:                          184.89441396546161
  Electronic energy [eV]:                                    -455.12721094059066

  Total energy [eV]:                                         -319.03801974904741

  Atomic reference energy [eV]:                               316.72256923991051
  Heat of formation [kcal/mol]:                               -53.39556144886601

 ENERGY| Total FORCE_EVAL ( QS ) energy (a.u.):              -11.724432003563097


 Number of electrons:                                                          8
 Number of occupied orbitals:                                                  4
 Number of molecular orbitals:                                                 4

 Number of orbital functions:                                                  6
 Number of independent orbital functions:                                      6

 Extrapolation method: ASPC


 SCF WAVEFUNCTION OPTIMIZATION

  Step     Update method      Time    Convergence         Total energy    Change
  ------------------------------------------------------------------------------
     1 P_Mix/Diag. 0.40E+00    0.0     0.00048452       -11.7239590870 -1.17E+01
     2 P_Mix/Diag. 0.40E+00    0.0     0.00035402       -11.7239592022 -1.15E-07
     3 DIIS/Diag.  0.43E-04    0.0     0.00040826       -11.7239592878 -8.55E-08
     4 DIIS/Diag.  0.22E-04    0.0     0.00003602       -11.7239594769 -1.89E-07
     5 DIIS/Diag.  0.37E-04    0.0     0.00007926       -11.7239594729  4.06E-09
     6 DIIS/Diag.  0.31E-05    0.0     0.00000728       -11.7239594790 -6.15E-09
     7 DIIS/Diag.  0.13E-06    0.0     0.00000014       -11.7239594790 -4.52E-11

  *** SCF run converged in     7 steps ***


  Core-core repulsion energy [eV]:                            135.24623145731960
  Core Hamiltonian energy [eV]:                              -547.32870098530964
  Two-electron integral energy [eV]:                          186.11461565007914
  Electronic energy [eV]:                                    -454.27139316027001

  Total energy [eV]:                                         -319.02516170295053

  Atomic reference energy [eV]:                               316.72256923991051
  Heat of formation [kcal/mol]:                               -53.09904783833140

 ENERGY| Total FORCE_EVAL ( QS ) energy (a.u.):              -11.723959479043026


 *******************************************************************************
 ENSEMBLE TYPE                =                                              NVE
 STEP NUMBER                  =                                              100
 TIME [fs]                    =                                        50.000000
 CONSERVED QUANTITY [hartree] =                              -0.117219186853E+02

                                              INSTANTANEOUS             AVERAGES
 CPU TIME [s]                 =                        0.02                 0.02
 ENERGY DRIFT PER ATOM [K]    =          0.697873658028E+00   0.454740604364E+00
 POTENTIAL ENERGY[hartree]    =         -0.117239594790E+02  -0.117244018084E+02
 KINETIC ENERGY [hartree]     =          0.204079373470E-02   0.248085373258E-02
 TEMPERATURE [K]              =                     214.810              261.130
 *******************************************************************************


 -------------------------------------------------------------------------------
 -                                                                             -
 -                                DBCSR STATISTICS                             -
 -                                                                             -
 -------------------------------------------------------------------------------
 COUNTER                                    TOTAL       BLAS       SMM       ACC
 flops    1 x    1 x    4                   20136     100.0%      0.0%      0.0%
 flops    4 x    1 x    4                   26848     100.0%      0.0%      0.0%
 flops    1 x    4 x    4                   26848     100.0%      0.0%      0.0%
 flops    4 x    4 x    4                  107392     100.0%      0.0%      0.0%
 flops total                       181.224000E+03     100.0%      0.0%      0.0%
 flops max/rank                    181.224000E+03     100.0%      0.0%      0.0%
 matmuls inhomo. stacks                         0       0.0%      0.0%      0.0%
 matmuls total                               5034     100.0%      0.0%      0.0%
 number of processed stacks                  3356     100.0%      0.0%      0.0%
 average stack size                                     1.5       0.0       0.0
 marketing flops                   241.632000E+03
 -------------------------------------------------------------------------------
 # multiplications                            839
 max memory usage/rank              64.262144E+06
 # max total images/rank                        1
 # MPI messages exchanged                       0
 # MPI messages filtered                        0
 MPI messages size (elements):
  total size                         0.000000E+00
  min size                           0.000000E+00
  max size                           0.000000E+00
  average size                       0.000000E+00
 MPI breakdown and total messages size (bytes):
             size <=      128                   0                        0
       128 < size <=     8192                   0                        0
      8192 < size <=    32768                   0                        0
     32768 < size <=   131072                   0                        0
    131072 < size <=  4194304                   0                        0
   4194304 < size <= 16777216                   0                        0
  16777216 < size                               0                        0
 -------------------------------------------------------------------------------

 MEMORY| Estimated peak process memory [MiB]                                  63

 -------------------------------------------------------------------------------
 -                                                                             -
 -                         MESSAGE PASSING PERFORMANCE                         -
 -                                                                             -
 -------------------------------------------------------------------------------

 ROUTINE             CALLS  TOT TIME [s]  AVE VOLUME [Bytes]  PERFORMANCE [MB/s]
 MP_Group                2         0.000
 MP_Bcast              844         0.000                  4.                7.31
 MP_Allreduce        13869         0.005                 27.               74.33
 MP_Sync                 1         0.000
 MP_Alltoall         16419         0.008                219.              478.15
 MP_Wait             20136         0.004
 MP_ISend             3356         0.005                 60.               44.54
 MP_IRecv             3356         0.002                 60.               80.61
 MP_Memory           35238         0.012
 -------------------------------------------------------------------------------


 -------------------------------------------------------------------------------
 -                                                                             -
 -                           R E F E R E N C E S                               -
 -                                                                             -
 -------------------------------------------------------------------------------
 
 CP2K version 4.1, the CP2K developers group (2016).
 CP2K is freely available from https://www.cp2k.org/ .

 Schuett, Ole; Messmer, Peter; Hutter, Juerg; VandeVondele, Joost. 
 Electronic Structure Calculations on Graphics Processing Units, John Wiley & Sons, Ltd, 173-190 (2016). 
 GPU-Accelerated Sparse Matrix-Matrix Multiplication for Linear Scaling Density Functional Theory.
 http://dx.doi.org/10.1002/9781118670712.ch8


 Borstnik, U; VandeVondele, J; Weber, V; Hutter, J. 
 PARALLEL COMPUTING, 40 (5-6), 47-58 (2014). 
 Sparse matrix multiplication: The distributed block-compressed sparse
 row library.
 http://dx.doi.org/10.1016/j.parco.2014.03.012


 Hutter, J; Iannuzzi, M; Schiffmann, F; VandeVondele, J. 
 WILEY INTERDISCIPLINARY REVIEWS-COMPUTATIONAL MOLECULAR SCIENCE, 4 (1), 15-25 (2014). 
 CP2K: atomistic simulations of condensed matter systems.
 http://dx.doi.org/10.1002/wcms.1159


 Stewart, JJP. 
 JOURNAL OF MOLECULAR MODELING, 13 (12), 1173-1213 (2007). 
 Optimization of parameters for semiempirical methods V: Modification of
 NDDO approximations and application to 70 elements.
 http://dx.doi.org/10.1007/s00894-007-0233-4


 Frigo, M; Johnson, SG. 
 PROCEEDINGS OF THE IEEE, 93 (2), 216-231 (2005). 
 The design and implementation of FFTW3.
 http://dx.doi.org/10.1109/JPROC.2004.840301


 Kolafa, J. 
 JOURNAL OF COMPUTATIONAL CHEMISTRY, 25 (3), 335-342 (2004). 
 Time-reversible always stable predictor-corrector method for molecular dynamics of polarizable molecules.
 http://dx.doi.org/10.1002/jcc.10385


 -------------------------------------------------------------------------------
 -                                                                             -
 -                                T I M I N G                                  -
 -                                                                             -
 -------------------------------------------------------------------------------
 SUBROUTINE                       CALLS  ASD         SELF TIME        TOTAL TIME
                                MAXIMUM       AVERAGE  MAXIMUM  AVERAGE  MAXIMUM
 CP2K                                 1  1.0    0.003    0.003    1.826    1.826
 qs_mol_dyn_low                       1  2.0    0.003    0.003    1.813    1.813
 velocity_verlet                    100  3.0    0.019    0.019    1.711    1.711
 qs_forces                          101  4.0    0.002    0.002    1.709    1.709
 qs_energies                        101  5.0    0.001    0.001    1.643    1.643
 scf_env_do_scf                     101  6.0    0.002    0.002    1.371    1.371
 scf_env_do_scf_inner_loop          739  7.0    0.030    0.030    1.369    1.369
 qs_scf_new_mos                     739  8.0    0.003    0.003    1.100    1.100
 calculate_dm_sparse                839  9.0    0.001    0.001    0.763    0.763
 cp_dbcsr_plus_fm_fm_t_native       839 10.0    0.005    0.005    0.756    0.756
 dbcsr_multiply_generic             839 11.0    0.014    0.014    0.667    0.667
 make_m2s                          1678 12.0    0.011    0.011    0.409    0.409
 make_images                       1678 13.0    0.254    0.254    0.344    0.344
 cp_gemm                           2156  9.7    0.003    0.003    0.313    0.313
 cp_gemm_fm_gemm                   2156 10.7    0.003    0.003    0.311    0.311
 cp_fm_gemm                        2156 11.7    0.308    0.308    0.308    0.308
 init_scf_run                       101  6.0    0.002    0.002    0.227    0.227
 scf_env_initial_rho_setup          101  7.0    0.001    0.001    0.226    0.226
 wfi_extrapolate                    101  8.0    0.002    0.002    0.224    0.224
 qs_diis_b_step                     638  9.0    0.006    0.006    0.210    0.210
 multiply_cannon                    839 12.0    0.127    0.127    0.178    0.178
 rebuild_ks_matrix                  840  8.6    0.001    0.001    0.176    0.176
 build_se_fock_matrix               840  9.6    0.006    0.006    0.175    0.175
 qs_ks_update_qs_env                739  8.0    0.002    0.002    0.157    0.157
 build_fock_matrix_coulomb          840 10.6    0.016    0.016    0.153    0.153
 eigensolver_simple                 739  9.0    0.102    0.102    0.135    0.135
 dbcsr_finalize                   12166 11.3    0.013    0.013    0.095    0.095
 dbcsr_create_new                 26263 11.9    0.040    0.040    0.091    0.091
 dbcsr_complete_redistribute       1578 11.0    0.032    0.032    0.083    0.083
 copy_dbcsr_to_fm                   739  9.0    0.004    0.004    0.081    0.081
 md_output                          100  3.0    0.000    0.000    0.077    0.077
 dbcsr_replicate                   1983 10.9    0.012    0.012    0.075    0.075
 md_write_output                    101  4.0    0.027    0.027    0.072    0.072
 dbcsr_data_release              122896 13.3    0.050    0.050    0.071    0.071
 dbcsr_data_new                   67844 12.9    0.035    0.035    0.064    0.064
 write_mo_set_to_restart            739  8.0    0.054    0.054    0.062    0.062
 copy_fm_to_dbcsr                   839 11.0    0.004    0.004    0.061    0.061
 build_se_core_matrix               202  6.0    0.003    0.003    0.058    0.058
 dbcsr_merge_all                   5442 13.1    0.018    0.018    0.046    0.046
 write_trajectory                   404  5.0    0.044    0.044    0.045    0.045
 dbcsr_destroy                    20821 11.7    0.018    0.018    0.040    0.040
 dbcsr_make_images_dense           1678 13.0    0.005    0.005    0.039    0.039
 -------------------------------------------------------------------------------

 The number of warnings for this run is : 0
 
 -------------------------------------------------------------------------------
  **** **** ******  **  PROGRAM ENDED AT                 2018-03-24 08:27:19.737
 ***** ** ***  *** **   PROGRAM RAN ON                                    ubuntu
 **    ****   ******    PROGRAM RAN BY                                      user
 ***** **    ** ** **   PROGRAM PROCESS ID                                 15805
  **** **  *******  **  PROGRAM STOPPED IN       /home/user/LOKT.02.048/week5/IR
