       7
 Particles+Wannier centers. Iteration:1_0
  O         4.0000000000        4.0000000000        4.3106120692
  H         4.0000000000        4.7699911626        3.6953408141
  H         4.0000000000        3.2300088374        3.6953408141
  X         3.9999999999        3.9999999748        3.9001513690
  X         4.0000000000        4.0000000281        4.1095218693
  X         4.1062183073        4.0000000000        4.3662736098
  X         3.8937816929        4.0000000000        4.3662736099
       7
 Particles+Wannier centers. Iteration:1_1
  O         4.0005031637        4.0004711459        4.3116097878
  H         4.0032014291        4.7677671784        3.6913005239
  H         3.9888116688        3.2247541511        3.6835439526
  X         3.9979094999        4.0388076353        3.8982331799
  X         3.9986500557        3.9578603872        4.1073925160
  X         3.8943477808        4.0010569760        4.3672855805
  X         4.1074387790        3.9990808211        4.3657551430
       7
 Particles+Wannier centers. Iteration:1_2
  O         4.0010048189        4.0009126258        4.3124348275
  H         4.0064028809        4.7646374366        3.6884419828
  H         3.9776472621        3.2208761199        3.6733063364
  X         3.9963926652        4.0651762330        3.8972488655
  X         3.9967870979        3.9294466336        4.1049418234
  X         3.8949600189        4.0020892865        4.3682584014
  X         4.1085456502        3.9981470332        4.3652565178
       7
 Particles+Wannier centers. Iteration:1_3
  O         4.0015026726        4.0012964594        4.3130642212
  H         4.0096058466        4.7606955234        3.6867658303
  H         3.9665416826        3.2187253030        3.6649918933
  X         3.9951493470        4.0812944329        3.8965392544
  X         3.9947290818        3.9122988208        4.1029748373
  X         3.8956207093        4.0030900727        4.3691900438
  X         4.1095484966        3.9971881085        4.3647662770
       7
 Particles+Wannier centers. Iteration:1_4
  O         4.0019938934        4.0015978108        4.3134820239
  H         4.0128142943        4.7560995578        3.6862347364
  H         3.9555359065        3.2185378066        3.6588910510
  X         3.9939671257        4.0896114525        3.8958415904
  X         3.9926937062        3.9036787684        4.1018158228
  X         3.8963348891        4.0040537147        4.3700771031
  X         4.1104542809        3.9961939830        4.3642706708
       7
 Particles+Wannier centers. Iteration:1_5
  O         4.0024754015        4.0017962219        4.3136801570
  H         4.0160356173        4.7510667891        3.6867760525
  H         3.9446714303        3.2204211234        3.6552046959
  X         3.9927004299        4.0920406892        3.8951081386
  X         3.9908227993        3.9014735950        4.1015280494
  X         3.8971081713        4.0049759610        4.3709167493
  X         4.1112692901        3.9951556616        4.3637556710
       7
 Particles+Wannier centers. Iteration:1_6
  O         4.0029441820        4.0018766132        4.3136587160
  H         4.0192814256        4.7458645454        3.6882872007
  H         3.9339844976        3.2243472872        3.6540338889
  X         3.9912470322        4.0899778086        3.8943936805
  X         3.9892097096        3.9041680561        4.1020485362
  X         3.8979457990        4.0058547447        4.3717079569
  X         4.1120002563        3.9940664816        4.3632084882
       7
 Particles+Wannier centers. Iteration:1_7
  O         4.0033976008        4.0018300538        4.3134257483
  H         4.0225681014        4.7407976874        3.6906436029
  H         3.9235005396        3.2301531996        3.6553754677
  X         3.9895344163        4.0844691268        3.8938021175
  X         3.9879152057        3.9106472329        4.1032503593
  X         3.8988525432        4.0066906790        4.3724519154
  X         4.1126547011        3.9929230018        4.3626180906
       7
 Particles+Wannier centers. Iteration:1_8
  O         4.0038337030        4.0016542830        4.3129965366
  H         4.0259170074        4.7361927805        3.6937085989
  H         3.9132292231        3.2375481808        3.6591235058
  X         3.9875128320        4.0763417889        3.8934591793
  X         3.9869755774        3.9200434226        4.1049726508
  X         3.8998329254        4.0074870256        4.3731516953
  X         4.1132409108        3.9917253855        4.3619750461
       7
 Particles+Wannier centers. Iteration:1_9
  O         4.0042514767        4.0013539414        4.3123924439
  H         4.0293542194        4.7323793436        3.6973444799
  H         3.9031605366        3.2461290505        3.6650766099
  X         3.9851503779        4.0662674946        3.8934936638
  X         3.9864081521        3.9316576090        4.1070399011
  X         3.9008914448        4.0082490486        4.3738113771
  X         4.1137676911        3.9904772044        4.3612708869
       7
 Particles+Wannier centers. Iteration:1_10
  O         4.0046510603        4.0009404559        4.3116393980
  H         4.0329096344        4.7296687405        3.7014235363
  H         3.8932623861        3.2554030593        3.6729509259
  X         3.9824269049        4.0547719038        3.8940218360
  X         3.9862178828        3.9449421170        4.1092776108
  X         3.9020326620        4.0089829160        4.3744348320
  X         4.1142439461        3.9891847895        4.3604972340
       7
 Particles+Wannier centers. Iteration:1_11
  O         4.0050338728        4.0004315316        4.3107661241
  H         4.0366153164        4.7283316226        3.7058379040
  H         3.8834801816        3.2648185184        3.6823983538
  X         3.9793247496        4.0422053844        3.8951354260
  X         3.9864073264        3.9595268730        4.1115249611
  X         3.9032610380        4.0096943206        4.3750244619
  X         4.1146781633        3.9878563132        4.3596450608
       7
 Particles+Wannier centers. Iteration:1_12
  O         4.0054026472        3.9998502352        4.3098022684
  H         4.0405029968        4.7285752935        3.7105070593
  H         3.8737388100        3.2738019781        3.6930288334
  X         3.9758152456        4.0286897166        3.8968957234
  X         3.9869913434        3.9752750712        4.1136418014
  X         3.9045805322        4.0103872717        4.3755801735
  X         4.1150778170        3.9865008375        4.3587042136
       7
 Particles+Wannier centers. Iteration:1_13
  O         4.0057613557        3.9992237055        4.3087765921
  H         4.0446007723        4.7305229525        3.7153820248
  H         3.8639471234        3.2817994539        3.7044348020
  X         3.9718387374        4.0140350092        3.8993367279
  X         3.9880190991        3.9923731364        4.1155076111
  X         3.9059939570        4.0110631865        4.3760989693
  X         4.1154489234        3.9851275540        4.3576637193
       7
 Particles+Wannier centers. Iteration:1_14
  O         4.0061150264        3.9985815744        4.3077154222
  H         4.0489292109        4.7341972140        3.7204457337
  H         3.8540047405        3.2883179740        3.7162154311
  X         3.9672718495        3.9975942624        3.9024818969
  X         3.9896101539        4.0114920838        4.1170063895
  X         3.9075022552        4.0117206877        4.3765754269
  X         4.1157957273        3.9837453371        4.3565127285
       7
 Particles+Wannier centers. Iteration:1_15
  O         4.0064694662        3.9979542106        4.3066415129
  H         4.0534972730        4.7395104717        3.7257094653
  H         3.8438105258        3.2929630912        3.7279982542
  X         3.9618626725        3.9779393750        3.9063874113
  X         3.9920254971        4.0341447034        4.1179813231
  X         3.9091041457        4.0123558208        4.3770024276
  X         4.1161204783        3.9823626356        4.3552420971
       7
 Particles+Wannier centers. Iteration:1_16
  O         4.0068309072        3.9973709080        4.3055734175
  H         4.0582986341        4.7462642698        3.7312057091
  H         3.8332718790        3.2954682678        3.7394562781
  X         3.9550761630        3.9520251075        3.9112657851
  X         3.9958339187        4.0635935645        4.1180973757
  X         3.9107966024        4.0129625931        4.3773729172
  X         4.1164226943        3.9809873767        4.3538462826
       7
 Particles+Wannier centers. Iteration:1_17
  O         4.0072056075        3.9968581330        4.3045253620
  H         4.0633090210        4.7541587494        3.7369784101
  H         3.8223137376        3.2957132540        3.7503197458
  X         3.9456880606        3.9128850830        3.9179223559
  X         4.0023370511        4.1072919616        4.1163414584
  X         3.9125789418        4.0135325610        4.3776795659
  X         4.1166950259        3.9796271275        4.3523241632
       7
 Particles+Wannier centers. Iteration:1_18
  O         4.0075994353        3.9964379371        4.3035075553
  H         4.0684850819        4.7628117703        3.7430717613
  H         3.8108863041        3.2937301559        3.7603824119
  X         3.9310047764        3.8448647634        3.9295404462
  X         4.0142980843        4.1814911351        4.1089998834
  X         3.9144691428        4.0140547129        4.3779085314
  X         4.1169070087        3.9782941516        4.3506770798
       7
 Particles+Wannier centers. Iteration:1_19
  O         4.0080174696        3.9961266386        4.3025268127
  H         4.0737650786        4.7717857232        3.7495189724
  H         3.7989706964        3.2896975573        3.7695028871
  X         3.9101971069        3.7411455604        3.9542759520
  X         4.0318759307        4.2896673165        4.0871327425
  X         3.9165113414        4.0145460816        4.3780374888
  X         4.1170091998        3.9770376922        4.3489087544
       7
 Particles+Wannier centers. Iteration:1_20
  O         4.0084636494        3.9959338633        4.3015873501
  H         4.0790713833        4.7806188917        3.7563323816
  H         3.7865820164        3.2839243818        3.7776019102
  X         3.8949820030        3.6700054324        3.9845235834
  X         4.0424837792        4.3576717862        4.0604308607
  X         3.9185895086        4.0150683056        4.3781293560
  X         4.1171353264        3.9758862568        4.3470629065
       7
 Particles+Wannier centers. Iteration:1_21
  O         4.0089405011        3.9958620105        4.3006916181
  H         4.0843144859        4.7888577709        3.7634960087
  H         3.7737696731        3.2768260486        3.7846565653
  X         3.8867285982        3.6446650971        4.0041918546
  X         4.0461548918        4.3793406202        4.0460007592
  X         3.9206097440        4.0155862829        4.3782410589
  X         4.1173640860        3.9747752659        4.3451802734
       7
 Particles+Wannier centers. Iteration:1_22
  O         4.0094489636        3.9959061706        4.2998410663
  H         4.0893980273        4.7960870291        3.7709612145
  H         3.7606151194        3.2688958211        3.7906924795
  X         3.8805228636        3.6351261394        4.0163373294
  X         4.0481243797        4.3869277894        4.0395527165
  X         3.9226108640        4.0160800464        4.3783685989
  X         4.1176431062        3.9737023472        4.3432778442
       7
 Particles+Wannier centers. Iteration:1_23
  O         4.0099883233        3.9960544801        4.2990367728
  H         4.0942243115        4.8019546239        3.7786456330
  H         3.7472273819        3.2606740547        3.7957749057
  X         4.0497174565        4.3903776746        4.0368798589
  X         3.8748901103        3.6308256326        4.0246261679
  X         3.9246068912        4.0165524340        4.3785224676
  X         4.1179562156        3.9726751971        4.3413790456
       7
 Particles+Wannier centers. Iteration:1_24
  O         4.0105562595        3.9962888701        4.2982799125
  H         4.0986997857        4.8061906303        3.7864351052
  H         3.7337368497        3.2527174910        3.7999993527
  X         4.0511980870        4.3922470310        4.0361729498
  X         3.8694731050        3.6287647862        4.0306646225
  X         3.9265979775        4.0170052255        4.3787203228
  X         4.1183035353        3.9716922489        4.3395087522
       7
 Particles+Wannier centers. Iteration:1_25
  O         4.0111489989        3.9965861428        4.2975720763
  H         4.1027400784        4.8086193286        3.7941880472
  H         3.7202877874        3.2455700746        3.8034821530
  X         4.0526208314        4.3933307798        4.0365869459
  X         3.8641648398        3.6279181160        4.0351911098
  X         3.9285814529        4.0174369734        4.3789801997
  X         4.1186886695        3.9707450876        4.3376894974
       7
 Particles+Wannier centers. Iteration:1_26
  O         4.0117615666        3.9969193010        4.2969154551
  H         4.1062743435        4.8091647908        3.8017416462
  H         3.7070300111        3.2397362701        3.8063513427
  X         4.0539857819        4.3939180384        4.0376376365
  X         3.8589275208        3.6278653426        4.0386172078
  X         3.9305542522        4.0178436290        4.3793176714
  X         4.1191154484        3.9698205179        4.3359394047
       7
 Particles+Wannier centers. Iteration:1_27
  O         4.0123881207        3.9972590451        4.2963129286
  H         4.1092487456        4.8078507057        3.8089191192
  H         3.6941100865        3.2356574734        3.8087379940
  X         3.8537524599        3.6284135309        4.0412323196
  X         4.0552688522        4.3941195192        4.0389804435
  X         3.9325130223        4.0182193869        4.3797448815
  X         4.1195873152        3.9689020225        4.3342714887
       7
 Particles+Wannier centers. Iteration:1_28
  O         4.0130223490        3.9975753497        4.2957680762
  H         4.1116290308        4.8047953493        3.8155375291
  H         3.6816624642        3.2336920107        3.8107682241
  X         3.8486489637        3.6294696650        4.0432791708
  X         4.0564303361        4.3939756859        4.0403301276
  X         3.9344538352        4.0185578173        4.3802702158
  X         4.1201072819        3.9679710804        4.3326934211
       7
 Particles+Wannier centers. Iteration:1_29
  O         4.0136579032        3.9978390389        4.2952851253
  H         4.1134021987        4.8002026253        3.8214157093
  H         3.6698009122        3.2340990998        3.8125561011
  X         3.8436374014        3.6309870687        4.0449732249
  X         4.0574217689        4.3935021148        4.0414400293
  X         3.9363719871        4.0188529525        4.3808982154
  X         4.1206779340        3.9670084748        4.3312075843
       7
 Particles+Wannier centers. Iteration:1_30
  O         4.0142888481        3.9980232842        4.2948688516
  H         4.1145773205        4.7943500731        3.8263819151
  H         3.6586105720        3.2370270590        3.8141975594
  X         3.8387419679        3.6329403394        4.0464973060
  X         4.0581935499        4.3927091958        4.0421071761
  X         3.9382620557        4.0191002823        4.3816297651
  X         4.1213013833        3.9659955551        4.3298114635
       7
 Particles+Wannier centers. Iteration:1_31
  O         4.0149101022        3.9981049609        4.2945244482
  H         4.1151855516        4.7875746286        3.8302809095
  H         3.6481409464        3.2425060194        3.8157654057
  X         3.8339840773        3.6353149671        4.0479898083
  X         4.0587019434        4.3916083832        4.0421837155
  X         3.9401182655        4.0192976108        4.3824622204
  X         4.1219790418        3.9649154778        4.3284981779
       7
 Particles+Wannier centers. Iteration:1_32
  O         4.0155178496        3.9980658042        4.2942573762
  H         4.1152793725        4.7802567895        3.8329801770
  H         3.6384001298        3.2504454078        3.8173054708
  X         3.8293771805        3.6381025497        4.0495371700
  X         4.0589146228        4.3902141749        4.0415838511
  X         3.9419350536        4.0194455031        4.3833895544
  X         4.1227110890        3.9637542645        4.3272569556
       7
 Particles+Wannier centers. Iteration:1_33
  O         4.0161099030        3.9978933116        4.2940732098
  H         4.1149310194        4.7728036501        3.8343750622
  H         3.6293506023        3.2606365852        3.8188339263
  X         3.8249233571        3.6412953866        4.0511749709
  X         4.0588155026        4.3885484453        4.0402837001
  X         3.9437077999        4.0195475199        4.3844028297
  X         4.1234961663        3.9625017210        4.3260742597
       7
 Particles+Wannier centers. Iteration:1_34
  O         4.0166859924        3.9975813527        4.2939774573
  H         4.1142300480        4.7656309264        3.8343928379
  H         3.6209070962        3.2727611453        3.8203360643
  X         3.8206094495        3.6448758066        4.0528934675
  X         4.0584098910        4.3866507820        4.0383154504
  X         3.9454335098        4.0196100402        4.3854900305
  X         4.1243306342        3.9611521376        4.3249343220
       7
 Particles+Wannier centers. Iteration:1_35
  O         4.0172479542        3.9971304549        4.2939753528
  H         4.1132798912        4.7591439950        3.8329956234
  H         3.6129370279        3.2864053431        3.8217666843
  X         4.0577309227        4.3845913089        4.0357621558
  X         3.8164022372        3.6488031778        4.0546429725
  X         3.9471112387        4.0196416484        4.3866362964
  X         4.1252080874        3.9597045863        4.3238200201
       7
 Particles+Wannier centers. Iteration:1_36
  O         4.0177997962        3.9965477492        4.2940715912
  H         4.1121932791        4.7537178963        3.8301823217
  H         3.6052640501        3.3010809421        3.8230523587
  X         4.0568500540        4.3824855115        4.0327602229
  X         3.8122397045        3.6530000815        4.0563302829
  X         3.9487421126        4.0196521723        4.3878241149
  X         4.1261190113        3.9581628505        4.3227137144
       7
 Particles+Wannier centers. Iteration:1_37
  O         4.0183476114        3.9958465763        4.2942699852
  H         4.1110864715        4.7496765448        3.8259897327
  H         3.5976751872        3.3162522674        3.8240957668
  X         4.0559013218        4.3805190421        4.0295248797
  X         3.8080104370        3.6573353737        4.0577904558
  X         3.9503289500        4.0196515540        4.3890337626
  X         4.1270507650        3.9565349276        4.3215981597
       7
 Particles+Wannier centers. Iteration:1_38
  O         4.0188993183        3.9950457628        4.2945730306
  H         4.1100724473        4.7472719426        3.8204929496
  H         3.5899317660        3.3313684748        3.8247822004
  X         4.0551559859        4.3790170333        4.0264510773
  X         3.8034907757        3.6615880658        4.0586797153
  X         3.9518755031        4.0196484156        4.3902439256
  X         4.1279876913        3.9548320870        4.3204574928
       7
 Particles+Wannier centers. Iteration:1_39
  O         4.0194642136        3.9941685964        4.2949813812
  H         4.1092534543        4.7466648909        3.8138050855
  H         3.5817839688        3.3458991100        3.8249881650
  X         4.0553072058        4.3786822332        4.0245388585
  X         3.7981126129        3.6653584527        4.0580349796
  X         3.9533855600        4.0196478927        4.3914324077
  X         4.1289109185        3.9530671067        4.3192783434
       7
 Particles+Wannier centers. Iteration:1_40
  O         4.0200523350        3.9932415491        4.2954932521
  H         4.1087136134        4.7479092565        3.8060763071
  H         3.5729883444        3.3593701047        3.8245918299
  X         4.0589833536        4.3812451208        4.0282297405
  X         3.7898291414        3.6684339759        4.0513966180
  X         3.9548603143        4.0196432432        4.3925766477
  X         4.1297953109        3.9512466217        4.3180512004
       7
 Particles+Wannier centers. Iteration:1_41
  O         4.0206736516        3.9922928285        4.2961037823
  H         4.1085124893        4.7509420670        3.7974921052
  H         3.5633270828        3.3713966835        3.8234848634
  X         3.7869357314        3.7375041263        3.9967675872
  X         4.0636624670        4.3319627861        4.0817368345
  X         3.9561560108        4.0195900078        4.3937660670
  X         4.1307362072        3.9492388890        4.3167690118
       7
 Particles+Wannier centers. Iteration:1_42
  O         4.0213371255        3.9913508582        4.2968044102
  H         4.1086806190        4.7555814528        3.7882706723
  H         3.5526273893        3.3817095365        3.8215849728
  X         3.8208340865        3.8727113960        3.9627323278
  X         4.0259795717        4.1989898706        4.1168971287
  X         3.9573813779        4.0197190122        4.3949683734
  X         4.1317824345        3.9472974258        4.3154214767
       7
 Particles+Wannier centers. Iteration:1_43
  O         4.0220497145        3.9904427968        4.2975823423
  H         4.1092178299        4.7615337950        3.7786590838
  H         3.5407789934        3.3901711842        3.8188481619
  X         3.8222531964        3.8940044192        3.9588120282
  X         4.0191315219        4.1799297893        4.1184207921
  X         3.9587492605        4.0198055490        4.3959282514
  X         4.1325339470        3.9454633277        4.3140322913
       7
 Particles+Wannier centers. Iteration:1_44
  O         4.0228154086        3.9895931887        4.2984202153
  H         4.1100947781        4.7684103520        3.7689278460
  H         3.5277479025        3.3967807675        3.8152795345
  X         3.8179836561        3.8987304067        3.9574045032
  X         4.0182025630        4.1785061102        4.1169763049
  X         3.9600985009        4.0198962953        4.3967945336
  X         4.1331887452        3.9436551214        4.3126103361
       7
 Particles+Wannier centers. Iteration:1_45
  O         4.0236344027        3.9888228094        4.2992960611
  H         4.1112575996        4.7757523571        3.7593633591
  H         3.5135848889        3.4016672751        3.8109414011
  X         3.8123865846        3.8996857884        3.9565848208
  X         4.0186995797        4.1811022233        4.1148503574
  X         3.9614202654        4.0200022412        4.3975853820
  X         4.1337668459        3.9418855635        4.3111722330
       7
 Particles+Wannier centers. Iteration:1_46
  O         4.0245025035        3.9881477449        4.3001836585
  H         4.1126350073        4.7830623268        3.7502580807
  H         3.4984278001        3.4050728507        3.8059575213
  X         3.8067894842        3.9004661829        3.9558558818
  X         4.0192817255        4.1838500711        4.1127013135
  X         3.9627176445        4.0201261794        4.3983124061
  X         4.1342759221        3.9401676651        4.3097375254
       7
 Particles+Wannier centers. Iteration:1_47
  O         4.0254108617        3.9875787346        4.3010533260
  H         4.1141467694        4.7898384816        3.7418985865
  H         3.4824973350        3.4073288040        3.8005124661
  X         3.8020273147        3.9031119191        3.9549173447
  X         4.0191349014        4.1845574540        4.1109649787
  X         3.9639976248        4.0202690398        4.3989873420
  X         4.1347232517        3.9385120330        4.3083259830
       7
 Particles+Wannier centers. Iteration:1_48
  O         4.0263460902        3.9871208097        4.3018731375
  H         4.1157124542        4.7956088940        3.7345522898
  H         3.4660864264        3.4088271999        3.7948455944
  X         3.7989755235        3.9095674555        3.9534820471
  X         4.0174034147        4.1811376615        4.1100618733
  X         3.9652690766        4.0204306348        4.3996204858
  X         4.1351157749        3.9369264259        4.3069546003
       7
 Particles+Wannier centers. Iteration:1_49
  O         4.0272908035        3.9867732489        4.3026105150
  H         4.1172594127        4.7999625102        3.7284537465
  H         3.4495436889        3.4099905445        3.7892394764
  X         3.7988416332        3.9223092220        3.9512425625
  X         4.0128646766        4.1709082947        4.1104355713
  X         3.9665414593        4.0206097708        4.4002194139
  X         4.1354592729        3.9354154692        4.3056357759
       7
 Particles+Wannier centers. Iteration:1_50
  O         4.0282245497        3.9865298456        4.3032340644
  H         4.1187293924        4.8025749523        3.7237917520
  H         3.4332520155        3.4112417316        3.7840036427
  X         3.8034252060        3.9447028142        3.9479486283
  X         4.0036175288        4.1501535730        4.1124646194
  X         3.9678243198        4.0208042368        4.4007876179
  X         4.1357570131        3.9339812313        4.3043763971
       7
 Particles+Wannier centers. Iteration:1_51
  O         4.0291250478        3.9863794448        4.3037154924
  H         4.1200835329        4.8032280089        3.7206982659
  H         3.4176039392        3.4129760413        3.7794552461
  X         3.8149037036        3.9801038858        3.9437541225
  X         3.9872571706        4.1150377412        4.1160598369
  X         3.9691287986        4.0210094939        4.4013225823
  X         4.1360066718        3.9326247332        4.3031788195
       7
 Particles+Wannier centers. Iteration:1_52
  O         4.0299695975        3.9863066758        4.3040314117
  H         4.1213058078        4.8018224726        3.7192400403
  H         3.4029758184        3.4155366662        3.7758987685
  X         3.8336313368        4.0271220211        3.9397827895
  X         3.9632637169        4.0668574157        4.1199919575
  X         3.9704689807        4.0212129325        4.4018134953
  X         4.1361944608        3.9313449825        4.3020435690
       7
 Particles+Wannier centers. Iteration:1_53
  O         4.0307365104        3.9862928095        4.3041648578
  H         4.1224051572        4.7983844072        3.7194136352
  H         3.3897029798        3.4191948379        3.7736069357
  X         3.8548593190        4.0747341167        3.9375660807
  X         3.9367822464        4.0177270826        4.1225353496
  X         3.9718525653        4.0213901554        4.4022479464
  X         4.1362993661        3.9301293027        4.3009691465
       7
 Particles+Wannier centers. Iteration:1_54
  O         4.0314064322        3.9863166905        4.3041063716
  H         4.1234165819        4.7930650244        3.7211443609
  H         3.3780576407        3.4241351490        3.7728045834
  X         3.8720758213        4.1111564877        3.9372505784
  X         3.9150545643        3.9807625837        4.1235752881
  X         3.9732713391        4.0215197111        4.4026252061
  X         4.1363131805        3.9289519719        4.2999475284
       7
 Particles+Wannier centers. Iteration:1_55
  O         4.0319634614        3.9863557305        4.3038545549
  H         4.1244013953        4.7861342531        3.7242895582
  H         3.3682309006        3.4304462226        3.7736565634
  X         3.8830420005        4.1341088400        3.9379607570
  X         3.9005877981        3.9584534947        4.1241644371
  X         3.9747145609        4.0215927126        4.4029508922
  X         4.1362394672        3.9277906703        4.2989664167
       7
 Particles+Wannier centers. Iteration:1_56
  O         4.0323960129        3.9863869715        4.3034160545
  H         4.1254466772        4.7779679625        3.7286464506
  H         3.3603195696        3.4381166147        3.7762601487
  X         3.8887520968        4.1467608016        3.9390838862
  X         3.8922658378        3.9472362680        4.1250100243
  X         3.9761780964        4.0216048576        4.4032280580
  X         4.1360807792        3.9266310206        4.2980138383
       7
 Particles+Wannier centers. Iteration:1_57
  O         4.0326974087        3.9863882273        4.3028049779
  H         4.1266637945        4.7690288350        3.7339644950
  H         3.3543182867        3.4470358074        3.7806419461
  X         3.8907225510        4.1524914830        3.9404200526
  X         3.8883925002        3.9433798185        4.1263172257
  X         3.9776615366        4.0215523240        4.4034575247
  X         4.1358374582        3.9254625649        4.2970782047
       7
 Particles+Wannier centers. Iteration:1_58
  O         4.0328661897        3.9863392889        4.3020417922
  H         4.1281856709        4.7598411471        3.7399616842
  H         3.3501172886        3.4570003124        3.7867590834
  X         3.8901203129        4.1536546303        3.9419608796
  X         3.8876644747        3.9443331708        4.1280573407
  X         3.9791655735        4.0214325997        4.4036390805
  X         4.1355098830        3.9242775576        4.2961469728
       7
 Particles+Wannier centers. Iteration:1_59