       3
 i =        0, time =        0.000, E =        -4.0674885728
  O         4.0000000000        4.0000000000        4.3106120100
  H         4.0000000000        4.7699911200        3.6953408400
  H         4.0000000000        3.2300088800        3.6953408400
       3
 i =        1, time =        0.500, E =        -4.0670981931
  O         4.0003557899        4.0003331479        4.3112618460
  H         4.0022638032        4.7681960741        3.6929256163
  H         3.9920886141        3.2265157474        3.6874409787
       3
 i =        2, time =        1.000, E =        -4.0668206652
  O         4.0007100134        4.0006226059        4.3116603122
  H         4.0045295943        4.7653748423        3.6922288716
  H         3.9842001036        3.2247423073        3.6818127238
       3
 i =        3, time =        1.500, E =        -4.0667409417
  O         4.0010604650        4.0008306851        4.3117895278
  H         4.0068010876        4.7617496883        3.6931509823
  H         3.9763657635        3.2250645432        3.6788395280
       3
 i =        4, time =        2.000, E =        -4.0668720990
  O         4.0014047582        4.0009277351        4.3116521642
  H         4.0090845756        4.7576684436        3.6954791171
  H         3.9686171840        3.2276052788        3.6786918158
       3
 i =        5, time =        2.500, E =        -4.0671546957
  O         4.0017408054        4.0008942582        4.3112706681
  H         4.0113895300        4.7535762346        3.6989086227
  H         3.9609780293        3.2322288777        3.6813179365
       3
 i =        6, time =        3.000, E =        -4.0674774199
  O         4.0020673254        4.0007234353        4.3106854873
  H         4.0137287272        4.7499743744        3.7030746181
  H         3.9534558605        3.2385422727        3.6864407302
       3
 i =        7, time =        3.500, E =        -4.0677133906
  O         4.0023843749        4.0004239515        4.3099521759
  H         4.0161176602        4.7473658396        3.7075937738
  H         3.9460342851        3.2459046238        3.6935616946
       3
 i =        8, time =        4.000, E =        -4.0677680853
  O         4.0026938712        4.0000224674        4.3091373944
  H         4.0185730711        4.7461925668        3.7121115284
  H         3.9386661275        3.2534508005        3.7019772640
       3
 i =        9, time =        4.500, E =        -4.0676295232
  O         4.0029999011        3.9995633985        4.3083126166
  H         4.0211105855        4.7467714017        3.7163487478
  H         3.9312708886        3.2601589328        3.7108320439
       3
 i =       10, time =        5.000, E =        -4.0673920301
  O         4.0033085966        3.9991047654        4.3075458807
  H         4.0237416993        4.7492418364        3.7201375239
  H         3.9237397372        3.2649685503        3.7192139474
       3
 i =       11, time =        5.500, E =        -4.0672247079
  O         4.0036273147        3.9987090195        4.3068921517
  H         4.0264707776        4.7535399377        3.7234358815
  H         3.9159515310        3.2669522684        3.7262924682
       3
 i =       12, time =        6.000, E =        -4.0672759551
  O         4.0039630883        3.9984303696        4.3063842523
  H         4.0292927767        4.7594058531        3.7263177230
  H         3.9077996739        3.2655094635        3.7314727005
       3
 i =       13, time =        6.500, E =        -4.0675693012
  O         4.0043207477        3.9983028081        4.3060274381
  H         4.0321923254        4.7664227412        3.7289419503
  H         3.8992228676        3.2605174067        3.7345123154
       3
 i =       14, time =        7.000, E =        -4.0679740144
  O         4.0047013538        3.9983329720        4.3057996811
  H         4.0351443881        4.7740764809        3.7315103375
  H         3.8902293054        3.2523848642        3.7355591979
       3
 i =       15, time =        7.500, E =        -4.0682825781
  O         4.0051016067        3.9985004789        4.3056580787
  H         4.0381162968        4.7818217697        3.7342250594
  H         3.8809040358        3.2419806766        3.7350921820
       3
 i =       16, time =        8.000, E =        -4.0683360704
  O         4.0055144056        3.9987646264        4.3055489981
  H         4.0410706063        4.7891410905        3.7372548040
  H         3.8713972188        3.2304684457        3.7337939136
       3
 i =       17, time =        8.500, E =        -4.0681059026
  O         4.0059302818        3.9990742425        4.3054188751
  H         4.0439682782        4.7955907392        3.7407120095
  H         3.8618981920        3.2191041479        3.7324021991
       3
 i =       18, time =        9.000, E =        -4.0676902588
  O         4.0063390445        3.9993765771        4.3052225712
  H         4.0467717664        4.8008325705        3.7446405799
  H         3.8526062634        3.2090632485        3.7315896318
       3
 i =       19, time =        9.500, E =        -4.0672532885
  O         4.0067312494        3.9996237976        4.3049285181
  H         4.0494477469        4.8046519073        3.7490125872
  H         3.8437046714        3.2013196904        3.7318852363
       3
 i =       20, time =       10.000, E =        -4.0669507571
  O         4.0070992887        3.9997768206        4.3045209214
  H         4.0519692751        4.8069639847        3.7537314661
  H         3.8353411204        3.1965786240        3.7336362889
       3
 i =       21, time =       10.500, E =        -4.0668763240
  O         4.0074381228        3.9998072120        4.3039999166
  H         4.0543173496        4.8078110041        3.7586398556
  H         3.8276146092        3.1952491904        3.7369979991
       3
 i =       22, time =       11.000, E =        -4.0670343335
  O         4.0077459390        3.9996988607        4.3033810675
  H         4.0564818236        4.8073515593        3.7635312443
  H         3.8205640549        3.1974285346        3.7419298285
       3
 i =       23, time =       11.500, E =        -4.0673398351
  O         4.0080247668        3.9994496003        4.3026943582
  H         4.0584614605        4.8058405893        3.7681652727
  H         3.8141584834        3.2028961060        3.7481961888
       3
 i =       24, time =       12.000, E =        -4.0676448299
  O         4.0082810558        3.9990728270        4.3019827286
  H         4.0602631501        4.8036017153        3.7722866296
  H         3.8082886245        3.2111156407        3.7553707874
       3
 i =       25, time =       12.500, E =        -4.0677897511
  O         4.0085261889        3.9985989508        4.3013001415
  H         4.0619002067        4.8009919285        3.7756468813
  H         3.8027604815        3.2212474382        3.7628454912
       3
 i =       26, time =       13.000, E =        -4.0676777039
  O         4.0087764529        3.9980747571        4.3007081741
  H         4.0633898427        4.7983619538        3.7780269091
  H         3.7972983131        3.2321981300        3.7698619776
       3
 i =       27, time =       13.500, E =        -4.0673420151
  O         4.0090519392        3.9975590369        4.3002702654
  H         4.0647501950        4.7960164917        3.7792581566
  H         3.7915650661        3.2427298082        3.7755818156
       3
 i =       28, time =       14.000, E =        -4.0669598946
  O         4.0093740090        3.9971137845        4.3000435196
  H         4.0659973331        4.7941799111        3.7792395882
  H         3.7852055967        3.2516340431        3.7791996027
       3
 i =       29, time =       14.500, E =        -4.0667691409
  O         4.0097612400        3.9967914318        4.3000686836
  H         4.0671428801        4.7929738156        3.7779472736
  H         3.7779133905        3.2579569607        3.7800924804
       3
 i =       30, time =       15.000, E =        -4.0669190220
  O         4.0102249656        3.9966224861        4.3003612880
  H         4.0681927129        4.7924094617        3.7754356387
  H         3.7695026715        3.2612030512        3.7779594980
       3
 i =       31, time =       15.500, E =        -4.0673615667
  O         4.0107657763        3.9966077532        4.3009066717
  H         4.0691469394        4.7923948213        3.7718311051
  H         3.7599639591        3.2614515515        3.7729069573
       3
 i =       32, time =       16.000, E =        -4.0678795040
  O         4.0113726773        3.9967192672        4.3016616212
  H         4.0700010578        4.7927532993        3.7673200567
  H         3.7494762784        3.2593229709        3.7654344166
       3
 i =       33, time =       16.500, E =        -4.0682268892
  O         4.0120251404        3.9969088743        4.3025619115
  H         4.0707480454        4.7932501720        3.7621332379
  H         3.7383725062        3.2558163963        3.7563305976
       3
 i =       34, time =       17.000, E =        -4.0682685008
  O         4.0126970104        3.9971201806        4.3035327806
  H         4.0713810326        4.7936229421        3.7565282914
  H         3.7270746808        3.2520894832        3.7465245843
       3
 i =       35, time =       17.500, E =        -4.0680274997
  O         4.0133608963        3.9972997439        4.3044993016
  H         4.0718961641        4.7936117620        3.7507721408
  H         3.7160214451        3.2492503905        3.7369387934
       3
 i =       36, time =       18.000, E =        -4.0676433980
  O         4.0139916175        3.9974041835        4.3053939940
  H         4.0722952898        4.7929868663        3.7451245206
  H         3.7056106519        3.2482174774        3.7283846338
       3
 i =       37, time =       18.500, E =        -4.0672916761
  O         4.0145685473        3.9974035943        4.3061617793
  H         4.0725882796        4.7915723548        3.7398225861
  H         3.6961598444        3.2496413417        3.7214992320
       3
 i =       38, time =       19.000, E =        -4.0671127833
  O         4.0150767454        3.9972817473        4.3067622915
  H         4.0727947606        4.7892643140        3.7350678443
  H         3.6878865489        3.2538835039        3.7167218252
       3
 i =       39, time =       19.500, E =        -4.0671684879
  O         4.0155076994        3.9970355254        4.3071712198
  H         4.0729451715        4.7860426895        3.7310159133
  H         3.6808954479        3.2610134994        3.7142826869
       3
 i =       40, time =       20.000, E =        -4.0674252136
  O         4.0158598718        3.9966741579        4.3073810734
  H         4.0730811282        4.7819770839        3.7277692405
  H         3.6751693310        3.2708152236        3.7141982766
       3
 i =       41, time =       20.500, E =        -4.0677647045
  O         4.0161391601        3.9962185170        4.3074015593
  H         4.0732550561        4.7772264953        3.7253728406
  H         3.6705621571        3.2827983665        3.7162694963
       3
 i =       42, time =       21.000, E =        -4.0680213677
  O         4.0163591779        3.9957002861        4.3072593891
  H         4.0735290234        4.7720329485        3.7238133114
  H         3.6667957672        3.2962179813        3.7200857453
       3
 i =       43, time =       21.500, E =        -4.0680446770
  O         4.0165412401        3.9951608297        4.3069972885
  H         4.0739726430        4.7667083914        3.7230216832
  H         3.6634622080        3.3101055267        3.7250377928
       3
 i =       44, time =       22.000, E =        -4.0677776788
  O         4.0167130974        3.9946480216        4.3066706160
  H         4.0746599046        4.7616141900        3.7228807910
  H         3.6600469922        3.3233397187        3.7303640772
       3
 i =       45, time =       22.500, E =        -4.0673102080
  O         4.0169058542        3.9942103669        4.3063408329
  H         4.0756648910        4.7571330669        3.7232377522
  H         3.6559823060        3.3347678950        3.7352418828
       3
 i =       46, time =       23.000, E =        -4.0668594835
  O         4.0171488684        3.9938885240        4.3060658354
  H         4.0770564973        4.7536347891        3.7239213452
  H         3.6507332465        3.3433749029        3.7389234262
       3
 i =       47, time =       23.500, E =        -4.0666570334
  O         4.0174633443        3.9937059320        4.3058886573
  H         4.0788925101        4.7514376460        3.7247637788
  H         3.6439054440        3.3484703964        3.7408934046
       3
 i =       48, time =       24.000, E =        -4.0668053738
  O         4.0178567875        3.9936623652        4.3058281971
  H         4.0812136054        4.7507692110        3.7256252694
  H         3.6353390802        3.3498303831        3.7409916215
       3
 i =       49, time =       24.500, E =        -4.0672127338
  O         4.0183203528        3.9937331092        4.3058751281
  H         4.0840381910        4.7517333037        3.7264170112
  H         3.6251561534        3.3477433444        3.7394549258
       3
 i =       50, time =       25.000, E =        -4.0676592495
  O         4.0188304759        3.9938748966        4.3059947892
  H         4.0873590312        4.7542898729        3.7271177307
  H         3.6137379435        3.3429361326        3.7368547823
       3
 i =       51, time =       25.500, E =        -4.0679354643
  O         4.0193538993        3.9940359649        4.3061353079
  H         4.0911423851        4.7582530744        3.7277794599
  H         3.6016460980        3.3364162352        3.7339625490
       3
 i =       52, time =       26.000, E =        -4.0679484213
  O         4.0198542825        3.9941667570        4.3062380340
  H         4.0953298991        4.7633089852        3.7285204970
  H         3.5895158191        3.3292842126        3.7315909033
       3
 i =       53, time =       26.500, E =        -4.0677403333
  O         4.0202979997        3.9942276000        4.3062467906
  H         4.0998429794        4.7690501892        3.7295067105
  H         3.5779594528        3.3225772251        3.7304656932
       3
 i =       54, time =       27.000, E =        -4.0674422266
  O         4.0206581859        3.9941925773        4.3061146060
  H         4.1045888063        4.7750198184        3.7309258559
  H         3.5674962594        3.3171635248        3.7311447619
       3
 i =       55, time =       27.500, E =        -4.0672048954
  O         4.0209168988        3.9940501060        4.3058077515
  H         4.1094671606        4.7807578123        3.7329599593
  H         3.5585112594        3.3136870301        3.7339814713
       3
 i =       56, time =       28.000, E =        -4.0671422515
  O         4.0210658694        3.9938014281        4.3053077396
  H         4.1143773598        4.7858443490        3.7357593124
  H         3.5512363965        3.3125478479        3.7391189909
       3
 i =       57, time =       28.500, E =        -4.0672944050
  O         4.0211068768        3.9934589166        4.3046124978
  H         4.1192246893        4.7899358649        3.7394214901
  H         3.5457381410        3.3138931418        3.7464926397
       3
 i =       58, time =       29.000, E =        -4.0676138155
  O         4.0210518710        3.9930444480        4.3037368250
  H         4.1239260408        4.7927924645        3.7439762896
  H         3.5419099172        3.3176155541        3.7558377139
       3
 i =       59, time =       29.500, E =        -4.0679772264
  O         4.0209229224        3.9925879320        4.3027122598
  H         4.1284146317        4.7942971442        3.7493761865
  H         3.5394681747        3.3233573201        3.7667011157
       3
 i =       60, time =       30.000, E =        -4.0682243424
  O         4.0207518711        3.9921257701        4.3015862658
  H         4.1326437262        4.7944675490        3.7554916443
  H         3.5379542396        3.3305229794        3.7784589722
       3
 i =       61, time =       30.500, E =        -4.0682240636
  O         4.0205791591        3.9916985542        4.3004202014
  H         4.1365891452        4.7934599568        3.7621112498
  H         3.5367503409        3.3383119264        3.7903487324
       3
 i =       62, time =       31.000, E =        -4.0679475558
  O         4.0204505276        3.9913463890        4.2992847141
  H         4.1402500616        4.7915634368        3.7689477526
  H         3.5351312395        3.3457984931        3.8015362348
       3
 i =       63, time =       31.500, E =        -4.0675047733
  O         4.0204114903        3.9911021202        4.2982526116
  H         4.1436472957        4.7891804793        3.7756521041
  H         3.5323536588        3.3520588188        3.8112148233
       3
 i =       64, time =       32.000, E =        -4.0671013033
  O         4.0204995173        3.9909828045        4.2973893056
  H         4.1468183790        4.7867907632        3.7818373650
  H         3.5277852912        3.3563424762        3.8187331352
       3
 i =       65, time =       32.500, E =        -4.0669212799
  O         4.0207361557        3.9909826474        4.2967432222
  H         4.1498090105        4.7848970001        3.7871129605
  H         3.5210384115        3.3582387326        3.8237130568
       3
 i =       66, time =       33.000, E =        -4.0670155200
  O         4.0211218167        3.9910709699        4.2963386440
  H         4.1526607731        4.7839524030        3.7911296580
  H         3.5120649116        3.3577813559        3.8261183773
       3
 i =       67, time =       33.500, E =        -4.0672810900
  O         4.0216355696        3.9911972792        4.2961732650
  H         4.1553972564        4.7842820239        3.7936278867
  H         3.5011734399        3.3554467800        3.8262452704
       3
 i =       68, time =       34.000, E =        -4.0675418712
  O         4.0222402797        3.9913024337        4.2962209350
  H         4.1580120347        4.7860159704        3.7944788955
  H         3.4889598768        3.3520436777        3.8246375777
       3
 i =       69, time =       34.500, E =        -4.0676569579
  O         4.0228907522        3.9913315453        4.2964378714
  H         4.1604622805        4.7890534184        3.7937077448
  H         3.4761844430        3.3485441306        3.8219652177
       3
 i =       70, time =       35.000, E =        -4.0675826214
  O         4.0235422099        3.9912444933        4.2967704321
  H         4.1626706612        4.7930695619        3.7914910714
  H         3.4636352365        3.3459097953        3.8189030328
       3
 i =       71, time =       35.500, E =        -4.0673703878
  O         4.0241564214        3.9910208913        4.2971622815
  H         4.1645352767        4.7975643187        3.7881299181
  H         3.4520210171        3.3449643549        3.8160442183
       3
 i =       72, time =       36.000, E =        -4.0671286887
  O         4.0247051880        3.9906600436        4.2975603966
  H         4.1659451697        4.8019394130        3.7840052599
  H         3.4419003520        3.3463171277        3.8138494495
       3
 i =       73, time =       36.500, E =        -4.0669736567
  O         4.0251715819        3.9901776062        4.2979195322
  H         4.1667973869        4.8055832806        3.7795281144
  H         3.4336448947        3.3503311657        3.8126259044
       3
 i =       74, time =       37.000, E =        -4.0669876136
  O         4.0255498203        3.9896009963        4.2982052120
  H         4.1670120354        4.8079464434        3.7750942621
  H         3.4274263296        3.3571207432        3.8125250577
       3
 i =       75, time =       37.500, E =        -4.0671904144
  O         4.0258448943        3.9889651645        4.2983959662
  H         4.1665439281        4.8086015714        3.7710466554
  H         3.4232106184        3.3665584053        3.8135447526
       3
 i =       76, time =       38.000, E =        -4.0675293503
  O         4.0260720630        3.9883090837        4.2984847032
  H         4.1653902623        4.8072847758        3.7676480254
  H         3.4207583532        3.3782894109        3.8155348284
       3
 i =       77, time =       38.500, E =        -4.0678929030
  O         4.0262561680        3.9876727896        4.2984793053
  H         4.1635947398        4.8039209157        3.7650620074
  H         3.4196315095        3.3917534004        3.8182065283
       3
 i =       78, time =       39.000, E =        -4.0681502593
  O         4.0264304161        3.9870944506        4.2984023576
  H         4.1612484389        4.7986361299        3.7633404109
  H         3.4192119071        3.4062183722        3.8211495437
       3
 i =       79, time =       39.500, E =        -4.0682081542
  O         4.0266334779        3.9866063671        4.2982891832
  H         4.1584880805        4.7917600380        3.7624158078
  H         3.4187489914        3.4208419926        3.8238706051
       3
 i =       80, time =       40.000, E =        -4.0680586962
  O         4.0269045641        3.9862299793        4.2981838109
  H         4.1554909715        4.7838140553        3.7621016078
  H         3.4174430497        3.4347625165        3.8258574181
       3
 i =       81, time =       40.500, E =        -4.0677883864
  O         4.0272765901        3.9859706596        4.2981326538
  H         4.1524655279        4.7754789680        3.7621046114
  H         3.4145631882        3.4472138798        3.8266664512
       3
 i =       82, time =       41.000, E =        -4.0675312958
  O         4.0277685134        3.9858139319        4.2981763938
  H         4.1496366325        4.7675350180        3.7620556365
  H         3.4095836056        3.4576456264        3.8260211241
       3
 i =       83, time =       41.500, E =        -4.0673936371
  O         4.0283795133        3.9857255980        4.2983420463
  H         4.1472263947        4.7607742050        3.7615599142
  H         3.4022952179        3.4658085945        3.8238873835
       3
 i =       84, time =       42.000, E =        -4.0674017328
  O         4.0290873900        3.9856574673        4.2986369517
  H         4.1454316146        4.7558870240        3.7602677716
  H         3.3928536124        3.4717772401        3.8204983853
       3
 i =       85, time =       42.500, E =        -4.0675024991
  O         4.0298520307        3.9855576443        4.2990462734
  H         4.1444023689        4.7533466023        3.7579514274
  H         3.3817454371        3.4759021887        3.8163174167
       3
 i =       86, time =       43.000, E =        -4.0676040501
  O         4.0306227820        3.9853821646        4.2995345209
  H         4.1442270108        4.7533217971        3.7545664911
  H         3.3696863784        3.4787124471        3.8119522212
       3
 i =       87, time =       43.500, E =        -4.0676237463
  O         4.0313472099        3.9851041177        4.3000505247
  H         4.1449273058        4.7556462763        3.7502778385
  H         3.3574869745        3.4808015068        3.8080501578
       3
 i =       88, time =       44.000, E =        -4.0675218290
  O         4.0319784917        3.9847174909        4.3005343982
  H         4.1464643481        4.7598534490        3.7454404472
  H         3.3459293660        3.4827314035        3.8052068476
       3
 i =       89, time =       44.500, E =        -4.0673166756
  O         4.0324802268        3.9842356388        4.3009251431
  H         4.1487526655        4.7652650864        3.7405414796
  H         3.3356768239        3.4849683804        3.8039033792
       3
 i =       90, time =       45.000, E =        -4.0670769935
  O         4.0328288795        3.9836863359        4.3011677574
  H         4.1516781458        4.7711054993        3.7361225684
  H         3.3272170519        3.4878472538        3.8044711845
       3
 i =       91, time =       45.500, E =        -4.0668945141
  O         4.0330143352        3.9831058052        4.3012185880
  H         4.1551148773        4.7766079575        3.7327060583
  H         3.3208365142        3.4915597709        3.8070808423
       3
 i =       92, time =       46.000, E =        -4.0668479656
  O         4.0330395843        3.9825332682        4.3010490565
  H         4.1589395295        4.7811013072        3.7307347179
  H         3.3166110743        3.4961545097        3.8117432183
       3
 i =       93, time =       46.500, E =        -4.0669703440
  O         4.0329201661        3.9820069059        4.3006478346
  H         4.1630421826        4.7840693758        3.7305307236
  H         3.3144039886        3.5015415823        3.8183159537
       3
 i =       94, time =       47.000, E =        -4.0672334926
  O         4.0326832966        3.9815610244        4.3000215587
  H         4.1673339654        4.7851861374        3.7322721700
  H         3.3138721222        3.5075024615        3.8265156140
       3
 i =       95, time =       47.500, E =        -4.0675561379
  O         4.0323666195        3.9812238955        4.2991945068
  H         4.1717527214        4.7843354245        3.7359809469
  H         3.3144800986        3.5137045448        3.8359349338
       3
 i =       96, time =       48.000, E =        -4.0678349278
  O         4.0320157875        3.9810153483        4.2982071222
  H         4.1762677226        4.7816225331        3.7415167625
  H         3.3155339810        3.5197277815        3.8460722357
       3
 i =       97, time =       48.500, E =        -4.0679869145
  O         4.0316801326        3.9809436378        4.2971130275
  H         4.1808834199        4.7773783444        3.7485768792
  H         3.3162462570        3.5251102580        3.8563790829
       3
 i =       98, time =       49.000, E =        -4.0679842246
  O         4.0314065133        3.9810019854        4.2959744833
  H         4.1856412063        4.7721508745        3.7567050473
  H         3.3158317291        3.5294115541        3.8663234437
       3
 i =       99, time =       49.500, E =        -4.0678640070
  O         4.0312318157        3.9811658225        4.2948561207
  H         4.1906164524        4.7666717833        3.7653179035
  H         3.3136295218        3.5322900002        3.8754627655
       3
 i =      100, time =       50.000, E =        -4.0677061686
  O         4.0311758808        3.9813924775        4.2938175859
  H         4.1959077584        4.7617865411        3.7737557592
  H         3.3092260918        3.5335774637        3.8835099529
