#     Step Nr.          Time[fs]        Kin.[a.u.]          Temp[K]            Pot.[a.u.]        Cons Qty[a.u.]        UsedTime[s]
         0            0.000000         0.001425067       300.000000000        -4.067488573        -4.066063506         0.000000000
         5            2.500000         0.001094994       230.514147197        -4.067154696        -4.066059702         0.292899376
        10            5.000000         0.001333093       280.637901077        -4.067392030        -4.066058938         0.258692116
        15            7.500000         0.002202847       463.735478960        -4.068282578        -4.066079731         0.324858974
        20           10.000000         0.000902965       190.088932295        -4.066950757        -4.066047792         0.500985595
        25           12.500000         0.001710156       360.015968913        -4.067789751        -4.066079595         0.528732183
        30           15.000000         0.000874313       184.057156870        -4.066919022        -4.066044709         0.587832236
        35           17.500000         0.001955823       411.732972935        -4.068027500        -4.066071676         0.495782194
        40           20.000000         0.001368114       288.010472465        -4.067425214        -4.066057100         0.761502768
        45           22.500000         0.001247478       262.614684246        -4.067310208        -4.066062730         0.686542220
        50           25.000000         0.001584588       333.581714995        -4.067659250        -4.066074662         0.737935341
        55           27.500000         0.001153681       242.868707448        -4.067204895        -4.066051215         0.964937341
        60           30.000000         0.002145572       451.678218013        -4.068224342        -4.066078770         0.706630131
        65           32.500000         0.000875439       184.294387168        -4.066921280        -4.066045840         1.085087483
        70           35.000000         0.001510990       318.088235832        -4.067582621        -4.066071631         0.755722473
        75           37.500000         0.001136759       239.306473770        -4.067190414        -4.066053655         0.981063994
        80           40.000000         0.001987902       418.485986155        -4.068058696        -4.066070794         1.024563801
        85           42.500000         0.001439261       302.988032675        -4.067502499        -4.066063238         0.883897427
        90           45.000000         0.001018243       214.356955405        -4.067076994        -4.066058750         1.336973370
        95           47.500000         0.001490916       313.862241905        -4.067556138        -4.066065222         1.145792766
       100           50.000000         0.001646104       346.531945583        -4.067706169        -4.066060065         0.973019658
