3
Lattice="8.0 0.0 0.0 0.0 8.0 0.0 0.0 0.0 8.0" Properties=species:S:1:pos:R:3:Z:I:1:forces:R:3:dipole:R:1 energy=-13.159508206574975 free_energy=-13.159508206574975 pbc="F F F"
O       4.00000000       4.00000000       4.31061201        8      -0.00000000       0.00000000      -0.02169639      -0.00000000 
H       4.00000000       4.76999112       3.69534084        1       0.00000000      -0.04776553      -0.01116054       0.00000000 
H       4.00000000       3.23000888       3.69534084        1      -0.00000000       0.04776553      -0.01116054      -0.37235107 
