      96
 i =        0, time =        0.000, E =      -130.1847369226
  O        -0.0690000000        0.8240000000       -1.2950000000
  H         0.7860000000        0.9430000000       -0.7520000000
  H        -0.4140000000       -0.0010000000       -0.8650000000
  O        -0.2820000000       -0.6740000000       -3.8220000000
  H         0.0180000000       -0.1470000000       -4.6240000000
  H        -0.1130000000       -0.0800000000       -3.0340000000
  O         2.2530000000        1.2610000000        0.1510000000
  H         2.6060000000        0.6380000000       -0.5390000000
  H         2.4550000000        0.7900000000        1.0190000000
  O         3.1060000000       -0.2760000000       -1.7950000000
  H         2.9140000000        0.4590000000       -2.3860000000
  H         2.4470000000       -1.0530000000       -1.9190000000
  O         6.2570000000       -0.6250000000       -0.6260000000
  H         7.1070000000       -1.0020000000       -0.3170000000
  H         5.5260000000       -1.1290000000       -0.1310000000
  O         5.4510000000       -1.2610000000       -2.9370000000
  H         4.5850000000       -0.9570000000       -2.5030000000
  H         6.0790000000       -0.9190000000       -2.2000000000
  O        -0.5150000000        3.6890000000        0.4820000000
  H        -0.2180000000        3.0200000000       -0.1890000000
  H         0.0460000000        3.5680000000        1.3820000000
  O        -0.2050000000        2.6400000000       -3.3370000000
  H        -1.0830000000        2.5760000000       -3.7710000000
  H        -0.2130000000        1.8850000000       -2.6800000000
  O         0.1320000000        6.3010000000       -0.2780000000
  H         1.1040000000        6.3660000000       -0.0680000000
  H        -0.1480000000        5.3630000000       -0.1120000000
  O        -0.5050000000        6.6800000000       -3.2850000000
  H        -0.6740000000        7.6770000000       -3.4470000000
  H        -0.9650000000        6.2780000000       -2.5170000000
  O         4.0630000000        3.3420000000       -0.4740000000
  H         4.9500000000        2.9120000000       -0.6630000000
  H         3.4840000000        2.6190000000       -0.1250000000
  O         2.5750000000        2.4040000000       -3.1700000000
  H         1.6940000000        2.8410000000       -3.2960000000
  H         3.0490000000        2.9560000000       -2.5030000000
  O         6.6660000000        2.0300000000       -0.8150000000
  H         7.4760000000        2.2770000000       -0.3160000000
  H         6.4730000000        1.0640000000       -0.6510000000
  O         6.8600000000        2.5910000000       -3.5840000000
  H         6.9280000000        3.5300000000       -3.1760000000
  H         6.9780000000        2.0970000000       -2.7540000000
  O         2.9310000000        6.0220000000       -0.2430000000
  H         3.7320000000        6.5620000000       -0.0040000000
  H         3.2260000000        5.1150000000       -0.4040000000
  O         2.2910000000        7.1400000000       -2.4550000000
  H         1.3170000000        6.9370000000       -2.5320000000
  H         2.5860000000        6.5740000000       -1.6690000000
  O         6.8430000000        5.4600000000        1.0650000000
  H         7.8030000000        5.2900000000        0.8520000000
  H         6.7270000000        5.4240000000        2.0620000000
  O         6.8960000000        4.7840000000       -2.1300000000
  H         6.1910000000        5.2380000000       -2.7020000000
  H         6.4630000000        4.6650000000       -1.2590000000
  O         0.3980000000        0.6910000000        4.0980000000
  H         0.0470000000        1.5670000000        3.8070000000
  H         1.2680000000        0.4900000000        3.6320000000
  O         2.6870000000        0.2720000000        2.6410000000
  H         3.0780000000        1.1260000000        3.0270000000
  H         3.3760000000       -0.5010000000        2.7930000000
  O         6.0020000000       -0.5250000000        4.0020000000
  H         6.1520000000        0.4050000000        3.6600000000
  H         5.9870000000       -0.4470000000        4.9800000000
  O         0.6490000000        3.5410000000        2.8970000000
  H         0.2450000000        4.3010000000        3.4590000000
  H         1.6380000000        3.4570000000        3.0840000000
  O        -0.0750000000        5.6620000000        4.2330000000
  H        -0.1820000000        6.5120000000        3.7760000000
  H        -0.2410000000        5.9610000000        5.2120000000
  O         3.2430000000        2.5850000000        3.8780000000
  H         3.1100000000        2.3430000000        4.8170000000
  H         4.2620000000        2.7180000000        3.7800000000
  O         5.9420000000        2.5820000000        3.7120000000
  H         6.2500000000        3.5000000000        3.5660000000
  H         6.3790000000        2.5640000000        4.6360000000
  O         2.6860000000        5.6380000000        5.1640000000
  H         1.7810000000        5.4720000000        4.6980000000
  H         2.4540000000        6.2860000000        5.8870000000
  O         6.7440000000        5.2760000000        3.8260000000
  H         6.2380000000        5.6080000000        4.6320000000
  H         7.7070000000        5.2580000000        4.1100000000
  O         8.5730000000        8.4720000000        0.4070000000
  H         9.0690000000        7.6560000000        0.0670000000
  H         8.4720000000        8.4250000000        1.3970000000
  O         8.7580000000        8.2450000000        2.9890000000
  H         9.2940000000        9.0910000000        3.1720000000
  H         7.9060000000        8.5270000000        3.3730000000
  O         4.0060000000        7.7340000000        3.0210000000
  H         4.6850000000        8.2380000000        3.5470000000
  H         3.4680000000        7.1580000000        3.6240000000
  O         5.2810000000        6.0890000000        6.0350000000
  H         5.1310000000        7.0330000000        6.3780000000
  H         4.4280000000        5.7040000000        5.7200000000
  O         5.0670000000        7.3230000000        0.6620000000
  H         5.7850000000        6.6670000000        0.7030000000
  H         4.7180000000        7.2520000000        1.5850000000
      96
 i =        1, time =        0.500, E =      -130.1856216028
  O        -0.0656333024        0.8221109237       -1.2952153792
  H         0.7894110797        0.9405602215       -0.7563483359
  H        -0.4171522623       -0.0051387485       -0.8731848452
  O        -0.2777310010       -0.6766956670       -3.8203645778
  H         0.0328022971       -0.1536821536       -4.6197057006
  H        -0.1078519847       -0.0862026752       -3.0234669752
  O         2.2531898901        1.2596919493        0.1530066043
  H         2.5941504504        0.6295076667       -0.5441186015
  H         2.4454117203        0.7989121632        1.0110577169
  O         3.1056406069       -0.2719342995       -1.7960942510
  H         2.9104223750        0.4734533777       -2.3920791642
  H         2.4549115446       -1.0528506805       -1.9084399743
  O         6.2571222265       -0.6241980553       -0.6280026596
  H         7.1010829318       -1.0034224075       -0.3093105638
  H         5.5269137232       -1.1128781703       -0.1313902709
  O         5.4551060525       -1.2595460638       -2.9360278521
  H         4.5859283198       -0.9692725063       -2.4949225081
  H         6.0755666884       -0.9164427481       -2.1996307013
  O        -0.5135849765        3.6891420952        0.4818885521
  H        -0.2232698233        3.0282933690       -0.1836196910
  H         0.0492318864        3.5675724085        1.3960617884
  O        -0.2072261387        2.6401199317       -3.3376412301
  H        -1.0701698951        2.5768766090       -3.7749749919
  H        -0.2352479366        1.8846131040       -2.6790558116
  O         0.1299996453        6.3027758978       -0.2790642691
  H         1.1151656678        6.3742616416       -0.0572052925
  H        -0.1431897191        5.3515164700       -0.1076383325
  O        -0.5041702199        6.6803909642       -3.2847936976
  H        -0.6872846142        7.6725765490       -3.4404715527
  H        -0.9749687563        6.2796858452       -2.5199995949
  O         4.0630121366        3.3446970049       -0.4719238912
  H         4.9435219739        2.9178013481       -0.6541197547
  H         3.5010031452        2.6289408521       -0.1149468582
  O         2.5758220246        2.4022650068       -3.1712475145
  H         1.7103490528        2.8466628041       -3.3010272323
  H         3.0387883982        2.9470525214       -2.5018706953
  O         6.6626418729        2.0318017359       -0.8156912477
  H         7.4717818042        2.2915185661       -0.3116691874
  H         6.4737171537        1.0632410762       -0.6511813211
  O         6.8571251278        2.5911486129       -3.5834709453
  H         6.9295752005        3.5290608281       -3.1904234703
  H         6.9739290885        2.0878373339       -2.7584056558
  O         2.9300198048        6.0211575906       -0.2435591872
  H         3.7340820911        6.5570107082       -0.0045662023
  H         3.2130786364        5.1012625417       -0.4042929669
  O         2.2905273981        7.1390240275       -2.4568081202
  H         1.3232798030        6.9396759255       -2.5484434365
  H         2.5896878735        6.5874621227       -1.6704303552
  O         6.8401129129        5.4595221739        1.0644638624
  H         7.8069837401        5.2865976724        0.8553971039
  H         6.7321874981        5.4238485687        2.0603774721
  O         6.8983199377        4.7821865464       -2.1275083980
  H         6.1972290309        5.2544237274       -2.6920987298
  H         6.4640265761        4.6661941209       -1.2572729176
  O         0.3949951294        0.6905587497        4.0946741916
  H         0.0410879238        1.5587930499        3.8055651691
  H         1.2764576743        0.4890835252        3.6285409955
  O         2.6910005695        0.2710371945        2.6439436244
  H         3.0795363566        1.1241287339        3.0381214364
  H         3.3765848014       -0.5018634851        2.7899381259
  O         6.0011295441       -0.5233540308        4.0043747337
  H         6.1559068923        0.3947462334        3.6619164443
  H         5.9857080170       -0.4454807801        4.9765509499
  O         0.6512471200        3.5395182045        2.8988923462
  H         0.2387935228        4.3062539870        3.4464128458
  H         1.6374539351        3.4506062608        3.0948002869
  O        -0.0764274127        5.6638479409        4.2359875641
  H        -0.1718045510        6.5178827984        3.7886007465
  H        -0.2363675800        5.9617148642        5.2109720494
  O         3.2452926277        2.5857510211        3.8734201829
  H         3.1159741653        2.3510041535        4.8351360442
  H         4.2592040839        2.7104304725        3.7761314111
  O         5.9435212501        2.5785507055        3.7137046432
  H         6.2444588643        3.5123193258        3.5583783668
  H         6.3708171633        2.5581579296        4.6305820320
  O         2.6843374790        5.6344153210        5.1633884530
  H         1.7754530095        5.4603421015        4.7140799287
  H         2.4495306244        6.2859472481        5.8744922521
  O         6.7449668454        5.2754797656        3.8238508956
  H         6.2400731432        5.6246494021        4.6269662092
  H         7.7013969425        5.2653088619        4.1254787901
  O         8.5692111012        8.4728501536        0.4050641916
  H         9.0667473116        7.6437800947        0.0679647413
  H         8.4673174680        8.4343949422        1.4023844717
  O         8.7560715151        8.2444648166        2.9882184479
  H         9.2902191321        9.0928536690        3.1793962402
  H         7.9050511928        8.5393761522        3.3717131716
  O         4.0078117564        7.7325119531        3.0225335068
  H         4.6976076949        8.2463766749        3.5380522817
  H         3.4667818916        7.1636249549        3.6215182704
  O         5.2797295842        6.0891638711        6.0330163500
  H         5.1351292242        7.0321805817        6.3779614587
  H         4.4254543753        5.7048387450        5.7045831450
  O         5.0664075371        7.3244608146        0.6602567413
  H         5.7768094125        6.6692522380        0.7131485315
  H         4.7211887763        7.2545804412        1.5822123517
      96
 i =        2, time =        1.000, E =      -130.1932312952
  O        -0.0621275999        0.8199960957       -1.2951692706
  H         0.7902754961        0.9391513865       -0.7624654749
  H        -0.4205884368       -0.0072877685       -0.8826653594
  O        -0.2733457195       -0.6791647931       -3.8187585896
  H         0.0464718986       -0.1622366081       -4.6124231150
  H        -0.1032526145       -0.0942912479       -3.0155897600
  O         2.2534211123        1.2582994565        0.1550210835
  H         2.5823033362        0.6224245667       -0.5477848971
  H         2.4349974520        0.8087292311        1.0024780079
  O         3.1050971582       -0.2681957742       -1.7971853058
  H         2.9061998606        0.4881947664       -2.3996491362
  H         2.4658628475       -1.0479830641       -1.8982371081
  O         6.2571679785       -0.6235883320       -0.6295591796
  H         7.0943934051       -1.0046318160       -0.3020985605
  H         5.5307529505       -1.0946506156       -0.1340376084
  O         5.4591499202       -1.2579407547       -2.9347563260
  H         4.5896310498       -0.9831072859       -2.4900053814
  H         6.0703104326       -0.9160905294       -2.2054708628
  O        -0.5119703845        3.6892195551        0.4820794752
  H        -0.2284408378        3.0370262883       -0.1772295314
  H         0.0485043970        3.5675292134        1.4028939277
  O        -0.2095066060        2.6400858458       -3.3381837232
  H        -1.0573028110        2.5783811978       -3.7794036884
  H        -0.2571340866        1.8870975180       -2.6798699937
  O         0.1281265582        6.3044840560       -0.2800399410
  H         1.1227442643        6.3819446916       -0.0473416065
  H        -0.1375771581        5.3420063497       -0.1035344275
  O        -0.5033931204        6.6810026678       -3.2846597241
  H        -0.7003729640        7.6626213237       -3.4319154555
  H        -0.9844537097        6.2833760220       -2.5238740893
  O         4.0631572308        3.3473452068       -0.4698701058
  H         4.9354378831        2.9246377867       -0.6450646913
  H         3.5174303385        2.6388871039       -0.1048427816
  O         2.5766466839        2.4005523259       -3.1724112098
  H         1.7272424028        2.8517890511       -3.3063205563
  H         3.0283891697        2.9377282745       -2.5014820808
  O         6.6593473401        2.0335529118       -0.8162478984
  H         7.4658543013        2.3052330310       -0.3084058534
  H         6.4751084467        1.0653918628       -0.6518293283
  O         6.8542966579        2.5915051639       -3.5828296625
  H         6.9308666160        3.5238833177       -3.2080632566
  H         6.9695821665        2.0774756879       -2.7633802539
  O         2.9290863020        6.0202203720       -0.2439388837
  H         3.7355470876        6.5516449230       -0.0055331476
  H         3.2005333764        5.0873855265       -0.4045150568
  O         2.2899806141        7.1379843082       -2.4586143294
  H         1.3312714196        6.9427699619       -2.5650620016
  H         2.5924941489        6.6030856717       -1.6749861730
  O         6.8375188019        5.4588700027        1.0640501784
  H         7.8074813062        5.2840456175        0.8596198340
  H         6.7378526981        5.4238209148        2.0558047273
  O         6.9003730116        4.7806583495       -2.1250504535
  H         6.2069222067        5.2689234904       -2.6795169349
  H         6.4655729201        4.6674009779       -1.2563393323
  O         0.3921311943        0.6900943001        4.0913031597
  H         0.0362273969        1.5496980738        3.8037722587
  H         1.2804656492        0.4894389335        3.6266899748
  O         2.6954011138        0.2698270281        2.6469807153
  H         3.0800955291        1.1198920809        3.0481759470
  H         3.3729377485       -0.4976449210        2.7862477485
  O         6.0002741515       -0.5215437032        4.0067435881
  H         6.1593878538        0.3821517525        3.6645355094
  H         5.9844391890       -0.4442101692        4.9722726015
  O         0.6536134231        3.5381411601        2.9010260188
  H         0.2351548839        4.3065522251        3.4304014896
  H         1.6336212954        3.4447397180        3.1049975782
  O        -0.0779208690        5.6660444577        4.2395104043
  H        -0.1617212761        6.5236137624        3.7994492351
  H        -0.2313123001        5.9595964837        5.2047406898
  O         3.2478020239        2.5865282512        3.8690488087
  H         3.1219028464        2.3597202707        4.8505537264
  H         4.2524339373        2.7025405817        3.7722542117
  O         5.9453266476        2.5752597706        3.7157525890
  H         6.2377524812        3.5243460136        3.5484640018
  H         6.3603252696        2.5502593628        4.6221540481
  O         2.6823467978        5.6309256537        5.1627695858
  H         1.7742522369        5.4489391931        4.7316177411
  H         2.4456144677        6.2844099334        5.8606129329
  O         6.7460975617        5.2749758101        3.8219489399
  H         6.2429549353        5.6407958586        4.6200416985
  H         7.6928016854        5.2728022884        4.1397291048
  O         8.5655513680        8.4734759258        0.4030524036
  H         9.0617619182        7.6358756417        0.0712736775
  H         8.4631068521        8.4431817505        1.4035510376
  O         8.7542439529        8.2443094837        2.9877692870
  H         9.2851070780        9.0899503017        3.1852117102
  H         7.9040608016        8.5502525524        3.3697775031
  O         4.0096587413        7.7311053610        3.0243731415
  H         4.7072046874        8.2525455599        3.5275846313
  H         3.4670117318        7.1704546620        3.6182473309
  O         5.2784021791        6.0895300226        6.0310869373
  H         5.1394085753        7.0268630862        6.3762001136
  H         4.4239233593        5.7067800088        5.6899479618
  O         5.0657779379        7.3259562005        0.6586162216
  H         5.7695204255        6.6717124318        0.7213947039
  H         4.7242808553        7.2582258933        1.5771169869
      96
 i =        3, time =        1.500, E =      -130.2046877563
  O        -0.0585083898        0.8176635337       -1.2948907531
  H         0.7888721035        0.9387327402       -0.7700709159
  H        -0.4242212955       -0.0075070683       -0.8932942288
  O        -0.2688507910       -0.6814219424       -3.8171483576
  H         0.0591249026       -0.1723778185       -4.6024849029
  H        -0.0992072455       -0.1043071877       -3.0105774216
  O         2.2536751184        1.2568609195        0.1569344598
  H         2.5704151385        0.6169813022       -0.5496424797
  H         2.4241245105        0.8186197287        0.9946812817
  O         3.1043968981       -0.2646756869       -1.7983171288
  H         2.9015665611        0.5020719388       -2.4078390514
  H         2.4792240069       -1.0389775479       -1.8886163101
  O         6.2571761242       -0.6231333402       -0.6307036809
  H         7.0871266693       -1.0056658857       -0.2953404470
  H         5.5366991878       -1.0748611235       -0.1384314990
  O         5.4630993836       -1.2562086234       -2.9332268819
  H         4.5959393243       -0.9983968221       -2.4882227394
  H         6.0638643982       -0.9176220022       -2.2168561806
  O        -0.5101775541        3.6892915383        0.4826500242
  H        -0.2330668128        3.0452389857       -0.1707513597
  H         0.0437374516        3.5678630175        1.4022087149
  O        -0.2117721047        2.6398993457       -3.3385857538
  H        -1.0456805058        2.5805219412       -3.7850512690
  H        -0.2784516900        1.8923940393       -2.6823162029
  O         0.1264280993        6.3060835810       -0.2809016624
  H         1.1258585537        6.3889789440       -0.0386791528
  H        -0.1310263573        5.3352033869       -0.0998404467
  O        -0.5026782995        6.6817947131       -3.2845738099
  H        -0.7132461785        7.6479134606       -3.4216228875
  H        -0.9933143278        6.2889334760       -2.5287259056
  O         4.0634269615        3.3500178021       -0.4678538157
  H         4.9266814539        2.9321930543       -0.6360873321
  H         3.5324721485        2.6479758310       -0.0942076352
  O         2.5775059084        2.3988058827       -3.1735142638
  H         1.7436160834        2.8567845790       -3.3121130221
  H         3.0183510575        2.9284657100       -2.5012081023
  O         6.6561318504        2.0352717722       -0.8166637754
  H         7.4579686006        2.3179677782       -0.3063709028
  H         6.4771885172        1.0703122326       -0.6528844922
  O         6.8515101497        2.5920039018       -3.5821103394
  H         6.9319308915        3.5152614218       -3.2282787007
  H         6.9649473617        2.0662627782       -2.7689704223
  O         2.9282043764        6.0191312332       -0.2441526066
  H         3.7364801723        6.5458618341       -0.0068880420
  H         3.1881789821        5.0743561855       -0.4044960439
  O         2.2893972793        7.1369306512       -2.4604654623
  H         1.3403055909        6.9460269985       -2.5817432421
  H         2.5944920862        6.6203047907       -1.6819834487
  O         6.8352434726        5.4580410898        1.0637325291
  H         7.8042545330        5.2823928486        0.8645849212
  H         6.7438215379        5.4239132287        2.0487683013
  O         6.9021740120        4.7794110023       -2.1226227376
  H         6.2198948689        5.2815205448       -2.6645070438
  H         6.4676171169        4.6685772268       -1.2560447195
  O         0.3894519791        0.6895520742        4.0878922132
  H         0.0321338004        1.5404686066        3.8013589477
  H         1.2796177176        0.4911547994        3.6266174936
  O         2.7001663755        0.2684014941        2.6501029549
  H         3.0797158872        1.1132634167        3.0571061023
  H         3.3655538600       -0.4888715561        2.7820815198
  O         5.9994223681       -0.5196492703        4.0090908015
  H         6.1626395792        0.3684222089        3.6674149966
  H         5.9831825598       -0.4431295555        4.9678612759
  O         0.6560806016        3.5368515861        2.9033759262
  H         0.2340056884        4.3022496633        3.4113390869
  H         1.6268224077        3.4394405695        3.1146409129
  O        -0.0794687632        5.6685669675        4.2435168757
  H        -0.1517530954        6.5292725833        3.8084366365
  H        -0.2260193950        5.9548358783        5.1941874521
  O         3.2504621458        2.5873059291        3.8649954373
  H         3.1279303578        2.3694610640        4.8616897605
  H         4.2426453707        2.6944846234        3.7682222962
  O         5.9473885358        2.5722046454        3.7180375135
  H         6.2296200285        3.5347023437        3.5367896410
  H         6.3482049570        2.5404796402        4.6118985152
  O         2.6800547850        5.6275071914        5.1621300219
  H         1.7770273419        5.4376406246        4.7502081564
  H         2.4422218309        6.2819081570        5.8459810190
  O         6.7473663867        5.2745021555        3.8203073125
  H         6.2465041878        5.6563071945        4.6111128280
  H         7.6817288140        5.2803534908        4.1526710274
  O         8.5620279602        8.4738602010        0.4009750456
  H         9.0538964375        7.6325942191        0.0770151441
  H         8.4594063463        8.4513285760        1.4002542021
  O         8.7524919791        8.2445357977        2.9876616305
  H         9.2789565904        9.0824637463        3.1894076317
  H         7.9031340551        8.5594262985        3.3670794941
  O         4.0115831812        7.7298192224        3.0264812473
  H         4.7134677089        8.2562521338        3.5156018145
  H         3.4683718411        7.1781210521        3.6147355736
  O         5.2770069903        6.0900551227        6.0291882034
  H         5.1436854937        7.0175582865        6.3728830433
  H         4.4237393395        5.7100102607        5.6762856620
  O         5.0650990494        7.3275077067        0.6570584693
  H         5.7636127076        6.6739793095        0.7276439427
  H         4.7269762296        7.2630034942        1.5701622125
      96
 i =        4, time =        2.000, E =      -130.2157517474
  O        -0.0548103242        0.8151322905       -1.2944231779
  H         0.7857132152        0.9392698157       -0.7787372528
  H        -0.4280229064       -0.0060286787       -0.9048356341
  O        -0.2642630147       -0.6835014487       -3.8154992223
  H         0.0709913661       -0.1836686493       -4.5904872841
  H        -0.0956751007       -0.1161297370       -3.0083952063
  O         2.2539276748        1.2554261930        0.1586376921
  H         2.5585067557        0.6132785366       -0.5494803910
  H         2.4131704676        0.8276818050        0.9892704768
  O         3.1035876199       -0.2612456580       -1.7995289302
  H         2.8967511468        0.5140348885       -2.4158341739
  H         2.4940583675       -1.0268359485       -1.8798176278
  O         6.2572021614       -0.6227820253       -0.6314910595
  H         7.0795356614       -1.0065935248       -0.2889781749
  H         5.5436018892       -1.0542317067       -0.1438247707
  O         5.4669174868       -1.2543922413       -2.9315176544
  H         4.6044181313       -1.0149447276       -2.4893803277
  H         6.0571997978       -0.9204932752       -2.2326404511
  O        -0.5082400704        3.6894181693        0.4836545798
  H        -0.2367236248        3.0519844798       -0.1651116985
  H         0.0350679673        3.5685248685        1.3940997745
  O        -0.2139605077        2.6395762508       -3.3388205359
  H        -1.0364347804        2.5833091072       -3.7926357658
  H        -0.2990306427        1.9002017225       -2.6860667206
  O         0.1249315620        6.3075452191       -0.2816316052
  H         1.1240454593        6.3953337712       -0.0314030942
  H        -0.1234869752        5.3316262117       -0.0966785132
  O        -0.5020258708        6.6827016532       -3.2845128707
  H        -0.7259841056        7.6297282792       -3.4099776522
  H        -1.0014646241        6.2961230575       -2.5345479744
  O         4.0637947701        3.3527872959       -0.4658870492
  H         4.9183657435        2.9400600117       -0.6274662827
  H         3.5454243866        2.6554427177       -0.0825839266
  O         2.5784303689        2.3969669286       -3.1745820547
  H         1.7584302569        2.8620859797       -3.3186499963
  H         3.0092224782        2.9197178548       -2.5003772235
  O         6.6530022514        2.0369880714       -0.8169430453
  H         7.4480728231        2.3296179838       -0.3056061478
  H         6.4799139096        1.0775837399       -0.6542476962
  O         6.8487578693        2.5925482332       -3.5813561124
  H         6.9328753431        3.5044711658       -3.2502461915
  H         6.9600141621        2.0545823768       -2.7752400949
  O         2.9273714330        6.0178390401       -0.2442146897
  H         3.7370093463        6.5396519013       -0.0086027161
  H         3.1758892073        5.0630427435       -0.4040893800
  O         2.2888148556        7.1359246396       -2.4624240926
  H         1.3495926747        6.9491743040       -2.5984112634
  H         2.5958826899        6.6383767904       -1.6904309409
  O         6.8332918880        5.4570377374        1.0634746493
  H         7.7974238980        5.2816226026        0.8701228668
  H         6.7498907021        5.4241131113        2.0400193300
  O         6.9037564880        4.7784254202       -2.1202132473
  H         6.2356914689        5.2924486432       -2.6475423872
  H         6.4701092765        4.6696705931       -1.2561715073
  O         0.3869792775        0.6888829900        4.0844580265
  H         0.0284909004        1.5318746997        3.7980679047
  H         1.2739093908        0.4942198539        3.6282950783
  O         2.7052323453        0.2668111601        2.6532906829
  H         3.0784983325        1.1043762367        3.0649305392
  H         3.3552930249       -0.4765011931        2.7776486143
  O         5.9985587703       -0.5177671430        4.0114047322
  H         6.1659230077        0.3550127760        3.6700045793
  H         5.9819261895       -0.4421740450        4.9640565497
  O         0.6586272593        3.5356100373        2.9058962744
  H         0.2350502339        4.2941115969        3.3898652271
  H         1.6176334485        3.4347244622        3.1238486539
  O        -0.0810552474        5.6713870057        4.2479140362
  H        -0.1418928860        6.5348176678        3.8155563947
  H        -0.2207479555        5.9478109096        5.1807265958
  O         3.2531926722        2.5880655303        3.8613406890
  H         3.1341309969        2.3803998662        4.8674699593
  H         4.2310955090        2.6864373810        3.7638603902