#     Step Nr.          Time[fs]        Kin.[a.u.]          Temp[K]            Pot.[a.u.]        Cons Qty[a.u.]        UsedTime[s]
         0            0.000000         0.133956289       300.000000000      -130.184736923      -130.050780634         0.000000000
        20           10.000000         0.152804397       342.211026748      -130.203857661      -130.051053264         1.701148826
        40           20.000000         0.180743422       404.781492420      -130.232013502      -130.051270080         1.933302321
        60           30.000000         0.200082491       448.092044475      -130.251374655      -130.051292164         2.158291136
        80           40.000000         0.216074292       483.906265711      -130.267750323      -130.051676031         2.388519846
       100           50.000000         0.201874453       452.105207784      -130.253202430      -130.051327977         2.478358678
