#     Step Nr.          Time[fs]        Kin.[a.u.]          Temp[K]            Pot.[a.u.]        Cons Qty[a.u.]        UsedTime[s]
         0            0.000000         0.002850134       300.000000000       -11.724775449       -11.721925315         0.000000000
        10            5.000000         0.002386166       251.163619108       -11.724311193       -11.721925026         0.012409250
        20           10.000000         0.003256653       342.789533452       -11.725181157       -11.721924504         0.013561285
        30           15.000000         0.001586607       167.003415247       -11.723501130       -11.721914523         0.016311566
        40           20.000000         0.002643304       278.229484084       -11.724560743       -11.721917439         0.016188774
        50           25.000000         0.002454734       258.380932617       -11.724376796       -11.721922062         0.017297175
        60           30.000000         0.002635673       277.426232143       -11.724563299       -11.721927626         0.018413193
        70           35.000000         0.003296238       346.956109902       -11.725224997       -11.721928760         0.021441613
        80           40.000000         0.001853397       195.085261132       -11.723770123       -11.721916726         0.020545024
        90           45.000000         0.002368149       249.267154186       -11.724282207       -11.721914058         0.023968770
       100           50.000000         0.002040794       214.810307672       -11.723959479       -11.721918685         0.022571131
