
  ___ ___ ___ _ _ _  
 |   |   |_  | | | | 
 | | | | | . | | | | 
 |__ |  _|___|_____|  1.1.0
 |___|_|             

User:   meeri@Igor
Date:   Thu Feb 15 16:10:48 2018
Arch:   x86_64
Pid:    25093
Python: 2.7.13
gpaw:   /home/meeri/.local/lib/python2.7/site-packages/gpaw
_gpaw:  /home/meeri/.local/lib/python2.7/site-packages/_gpaw.so
ase:    /home/meeri/.local/lib/python2.7/site-packages/ase (version 3.13.0)
numpy:  /home/meeri/anaconda2/lib/python2.7/site-packages/numpy (version 1.12.1)
scipy:  /home/meeri/anaconda2/lib/python2.7/site-packages/scipy (version 0.19.0)
units:  Angstrom and eV
cores:  1

Memory estimate
---------------
Process memory now: 423.74 MiB
Calculator  12.26 MiB
    Density  5.36 MiB
        Arrays  0.81 MiB
        Localized functions  4.23 MiB
        Mixer  0.31 MiB
    Hamiltonian  1.47 MiB
        Arrays  0.53 MiB
        XC  0.00 MiB
        Poisson  0.61 MiB
        vbar  0.33 MiB
    Wavefunctions  5.43 MiB
        C [qnM]  0.15 MiB
        S, T [2 x qmm]  0.37 MiB
        P [aqMi]  0.01 MiB
        TCI  0.00 MiB
        BasisFunctions  4.90 MiB
        Eigensolver  0.00 MiB

Positions:
  0 Li    0.0000    0.0000    0.0000
  1 Li    1.7550    1.7550    1.7550

   .--------.  
  /|        |  
 * |        |  
 | |   Li   |  
 | .--------.  
 |/        /   
 Li-------*    

Unit Cell:
           Periodic     X           Y           Z      Points  Spacing
  --------------------------------------------------------------------
  1. axis:    yes    3.510000    0.000000    0.000000    16     0.2194
  2. axis:    yes    0.000000    3.510000    0.000000    16     0.2194
  3. axis:    yes    0.000000    0.000000    3.510000    16     0.2194

Li-setup:
  name   : Lithium
  id     : b73562207f97a71b6967473b66fe8b65
  Z      : 3
  valence: 1
  core   : 2
  charge : 0.0
  file   : /usr/share/gpaw-setups/Li.LDA.gz
  cutoffs: 1.06(comp), 1.91(filt), 2.55(core), lmax=2
  valence states:
            energy   radius
    2s(1.00)  -2.874   1.058
    2p(0.00)  -1.126   1.058
    *s      24.338   1.058

LCAO basis set for Li:
  Name: dzp
  Basis set was loaded from file /usr/share/gpaw-setups/Li.dzp.basis.gz
  Number of radial functions: 3
  Number of spherical harmonics: 5
    l=0, rc=10.8906 Bohr: 2s-sz confined orbital
    l=0, rc=6.6719 Bohr: 2s-dz split-valence wave
    l=1, rc=10.8906 Bohr: p-type Gaussian polarization

Using the LDA Exchange-Correlation Functional.
Spin-Paired Calculation
Total Charge: 0.000000
Fermi Temperature: 0.100000
Wave functions: LCAO
    Diagonalizer: Serial LAPACK
    Atomic Correction: dense with blas
    Datatype: complex
Eigensolver: LCAO using direct dense diagonalizer
XC and Coulomb potentials evaluated on a 32*32*32 grid
Interpolation: tri-quintic (5. degree polynomial)
Poisson solver: Jacobi solver with 6 multi-grid levels
    Coarsest grid: 1 x 1 x 1 points
    Stencil: 6*3+1=19 point O(h^6) finite-difference Laplacian
    Tolerance: 2.000000e-10
    Max iterations: 1000
Reference Energy: -399.217591

Total number of cores used: 1

Symmetries present (total): 48

  ( 1  0  0)  ( 1  0  0)  ( 1  0  0)  ( 1  0  0)  ( 1  0  0)  ( 1  0  0)
  ( 0  1  0)  ( 0  1  0)  ( 0  0  1)  ( 0  0  1)  ( 0  0 -1)  ( 0  0 -1)
  ( 0  0  1)  ( 0  0 -1)  ( 0  1  0)  ( 0 -1  0)  ( 0  1  0)  ( 0 -1  0)

  ( 1  0  0)  ( 1  0  0)  ( 0  1  0)  ( 0  1  0)  ( 0  1  0)  ( 0  1  0)
  ( 0 -1  0)  ( 0 -1  0)  ( 1  0  0)  ( 1  0  0)  ( 0  0  1)  ( 0  0  1)
  ( 0  0  1)  ( 0  0 -1)  ( 0  0  1)  ( 0  0 -1)  ( 1  0  0)  (-1  0  0)

  ( 0  1  0)  ( 0  1  0)  ( 0  1  0)  ( 0  1  0)  ( 0  0  1)  ( 0  0  1)
  ( 0  0 -1)  ( 0  0 -1)  (-1  0  0)  (-1  0  0)  ( 1  0  0)  ( 1  0  0)
  ( 1  0  0)  (-1  0  0)  ( 0  0  1)  ( 0  0 -1)  ( 0  1  0)  ( 0 -1  0)

  ( 0  0  1)  ( 0  0  1)  ( 0  0  1)  ( 0  0  1)  ( 0  0  1)  ( 0  0  1)
  ( 0  1  0)  ( 0  1  0)  ( 0 -1  0)  ( 0 -1  0)  (-1  0  0)  (-1  0  0)
  ( 1  0  0)  (-1  0  0)  ( 1  0  0)  (-1  0  0)  ( 0  1  0)  ( 0 -1  0)

  ( 0  0 -1)  ( 0  0 -1)  ( 0  0 -1)  ( 0  0 -1)  ( 0  0 -1)  ( 0  0 -1)
  ( 1  0  0)  ( 1  0  0)  ( 0  1  0)  ( 0  1  0)  ( 0 -1  0)  ( 0 -1  0)
  ( 0  1  0)  ( 0 -1  0)  ( 1  0  0)  (-1  0  0)  ( 1  0  0)  (-1  0  0)

  ( 0  0 -1)  ( 0  0 -1)  ( 0 -1  0)  ( 0 -1  0)  ( 0 -1  0)  ( 0 -1  0)
  (-1  0  0)  (-1  0  0)  ( 1  0  0)  ( 1  0  0)  ( 0  0  1)  ( 0  0  1)
  ( 0  1  0)  ( 0 -1  0)  ( 0  0  1)  ( 0  0 -1)  ( 1  0  0)  (-1  0  0)

  ( 0 -1  0)  ( 0 -1  0)  ( 0 -1  0)  ( 0 -1  0)  (-1  0  0)  (-1  0  0)
  ( 0  0 -1)  ( 0  0 -1)  (-1  0  0)  (-1  0  0)  ( 0  1  0)  ( 0  1  0)
  ( 1  0  0)  (-1  0  0)  ( 0  0  1)  ( 0  0 -1)  ( 0  0  1)  ( 0  0 -1)

  (-1  0  0)  (-1  0  0)  (-1  0  0)  (-1  0  0)  (-1  0  0)  (-1  0  0)
  ( 0  0  1)  ( 0  0  1)  ( 0  0 -1)  ( 0  0 -1)  ( 0 -1  0)  ( 0 -1  0)
  ( 0  1  0)  ( 0 -1  0)  ( 0  1  0)  ( 0 -1  0)  ( 0  0  1)  ( 0  0 -1)

4096 k-points: 16 x 16 x 16 Monkhorst-Pack grid
120 k-points in the Irreducible Part of the Brillouin Zone

          k-points in crystal coordinates                weights
   0:     0.03125000    0.03125000    0.03125000          8/4096
   1:     0.09375000    0.03125000    0.03125000         24/4096
   2:     0.09375000    0.09375000    0.03125000         24/4096
   3:     0.09375000    0.09375000    0.09375000          8/4096
   4:     0.15625000    0.03125000    0.03125000         24/4096
   5:     0.15625000    0.09375000    0.03125000         48/4096
   6:     0.15625000    0.09375000    0.09375000         24/4096
   7:     0.15625000    0.15625000    0.03125000         24/4096
   8:     0.15625000    0.15625000    0.09375000         24/4096
   9:     0.15625000    0.15625000    0.15625000          8/4096
          ...
 119:     0.46875000    0.46875000    0.46875000          8/4096

Mixer Type: Mixer
Linear Mixing Parameter: 0.05
Mixing with 5 Old Densities
Damping of Long Wave Oscillations: 50

Convergence Criteria:
    Total Energy Change: 0.0005 eV / electron
    Integral of Absolute Density Change: 0.0001 electrons
    Integral of Absolute Eigenstate Change: 4e-08 eV^2
Number of Atoms: 2
Number of Atomic Orbitals: 10
Number of Bands in Calculation: 8
Bands to Converge: Occupied States Only
Number of Valence Electrons: 2
                     log10-error:    Total        Iterations:
           Time      WFS    Density  Energy       Fermi  Poisson
iter:   1  16:10:53                  -3.956452    2      11     
iter:   2  16:11:25         -1.39    -3.956439    1      3      
iter:   3  16:11:59         -1.41    -3.956673    2      5      
iter:   4  16:12:34         -3.93    -3.956637    2      2      
iter:   5  16:13:07         -3.53    -3.956677    2      2      
iter:   6  16:13:42         -5.51    -3.956668    1      1      
------------------------------------
Converged After 6 Iterations.

Energy Contributions Relative to Reference Atoms:(reference = -399.217591)
-------------------------
Kinetic:         +3.582574
Potential:       -3.094711
External:        +0.000000
XC:              -4.401108
Entropy (-ST):   -0.030180
Local:           -0.028332
-------------------------
Free Energy:     -3.971758
Zero Kelvin:     -3.956668

Fermi Level: 0.18684
Warning: Showing only first 10 kpts
 Kpt  Band  Eigenvalues  Occupancy
  0     0     -3.31976    0.00391
  0     1      5.48251    0.00000
  0     2      5.48251    0.00000
  0     3      5.55062    0.00000
  0     4     13.06229    0.00000
  0     5     14.15170    0.00000
  0     6     14.23600    0.00000
  0     7     14.23600    0.00000

  1     0     -3.24803    0.01172
  1     1      5.00946    0.00000
  1     2      5.59531    0.00000
  1     3      5.65245    0.00000
  1     4     13.09934    0.00000
  1     5     13.87407    0.00000
  1     6     13.98499    0.00000
  1     7     14.15093    0.00000

  2     0     -3.17631    0.01172
  2     1      4.93674    0.00000
  2     2      5.30477    0.00000
  2     3      5.74745    0.00000
  2     4     13.16371    0.00000
  2     5     13.54185    0.00000
  2     6     13.78607    0.00000
  2     7     14.08716    0.00000

  3     0     -3.10461    0.00391
  3     1      5.05008    0.00000
  3     2      5.05008    0.00000
  3     3      5.60741    0.00000
  3     4     13.21172    0.00000
  3     5     13.24724    0.00000
  3     6     13.80978    0.00000
  3     7     13.80978    0.00000

  4     0     -3.10441    0.01172
  4     1      4.17960    0.00000
  4     2      5.82076    0.00000
  4     3      5.87187    0.00000
  4     4     13.03404    0.00000
  4     5     13.40157    0.00000
  4     6     13.50645    0.00000
  4     7     13.94665    0.00000

  5     0     -3.03272    0.02344
  5     1      4.21251    0.00000
  5     2      5.41331    0.00000
  5     3      5.96710    0.00000
  5     4     13.02359    0.00000
  5     5     13.14745    0.00000
  5     6     13.34114    0.00000
  5     7     13.92826    0.00000

  6     0     -2.96107    0.01172
  6     1      4.27366    0.00000
  6     2      5.27684    0.00000
  6     3      5.74480    0.00000
  6     4     12.72406    0.00000
  6     5     13.26375    0.00000
  6     6     13.28431    0.00000
  6     7     13.72268    0.00000

  7     0     -2.88923    0.01172
  7     1      4.03325    0.00000
  7     2      4.97961    0.00000
  7     3      6.18674    0.00000
  7     4     12.42727    0.00000
  7     5     12.98756    0.00000
  7     6     13.19758    0.00000
  7     7     13.81473    0.00000

  8     0     -2.81765    0.01172
  8     1      4.14697    0.00000
  8     2      4.88415    0.00000
  8     3      5.84683    0.00000
  8     4     12.23479    0.00000
  8     5     12.94606    0.00000
  8     6     13.31712    0.00000
  8     7     13.49103    0.00000

  9     0     -2.67437    0.00391
  9     1      4.37479    0.00000
  9     2      4.37479    0.00000
  9     3      5.69606    0.00000
  9     4     11.85814    0.00000
  9     5     12.88419    0.00000
  9     6     12.88419    0.00000
  9     7     13.35924    0.00000



Dipole Moment: [-0.242342 -0.242342 -0.242342]
Memory usage: 423.74 MiB
Timing:                               incl.     excl.
------------------------------------------------------------
IO:                                   0.011     0.000   0.0% |
 Write:                               0.011     0.000   0.0% |
  Atomic matrices:                    0.001     0.001   0.0% |
  Band energies:                      0.002     0.002   0.0% |
  Close:                              0.000     0.000   0.0% |
  Meta data:                          0.005     0.005   0.0% |
  Projections:                        0.003     0.003   0.0% |
  Pseudo-density:                     0.000     0.000   0.0% |
  Pseudo-potential:                   0.000     0.000   0.0% |
  Pseudo-wavefunctions:               0.000     0.000   0.0% |
Initialization:                       4.213     0.132   0.0% |
 Basic WFS set positions:             0.003     0.003   0.0% |
 Basis functions set positions:       0.027     0.027   0.0% |
 LCAO WFS Initialize:                 0.095     0.006   0.0% |
  Hamiltonian:                        0.089     0.000   0.0% |
   Atomic:                            0.025     0.001   0.0% |
    XC Correction:                    0.024     0.024   0.0% |
   Calculate atomic Hamiltonians:     0.002     0.002   0.0% |
   Communicate:                       0.000     0.000   0.0% |
   Hartree integrate/restrict:        0.000     0.000   0.0% |
   Initialize Hamiltonian:            0.002     0.002   0.0% |
   Poisson:                           0.052     0.052   0.0% |
   XC 3D grid:                        0.008     0.008   0.0% |
   vbar:                              0.000     0.000   0.0% |
 Set symmetry:                        2.688     2.688   0.2% |
 TCI: Calculate S, T, P:              1.236     1.236   0.1% |
 TCI: Evaluate splines:               0.032     0.032   0.0% |
SCF-cycle:                          169.279     0.075   0.0% |
 Density:                           164.515     0.000   0.0% |
  Atomic density matrices:            0.028     0.028   0.0% |
  Mix:                                0.012     0.012   0.0% |
  Multipole moments:                  0.001     0.001   0.0% |
  Normalize:                          0.000     0.000   0.0% |
  Pseudo density:                   164.474     0.020   0.0% |
   Calculate density matrix:          0.068     0.068   0.0% |
   Construct density:               164.326   164.326  12.8% |----|
   Symmetrize density:                0.059     0.059   0.0% |
 Hamiltonian:                         0.251     0.000   0.0% |
  Atomic:                             0.136     0.003   0.0% |
   XC Correction:                     0.132     0.132   0.0% |
  Calculate atomic Hamiltonians:      0.008     0.008   0.0% |
  Communicate:                        0.000     0.000   0.0% |
  Hartree integrate/restrict:         0.002     0.002   0.0% |
  Poisson:                            0.065     0.065   0.0% |
  XC 3D grid:                         0.039     0.039   0.0% |
  vbar:                               0.001     0.001   0.0% |
 LCAO eigensolver:                    4.439     0.032   0.0% |
  Calculate projections:              0.014     0.014   0.0% |
  DenseAtomicCorrection:              0.084     0.084   0.0% |
  Distribute overlap matrix:          0.024     0.024   0.0% |
  Orbital Layouts:                    0.061     0.061   0.0% |
  Potential matrix:                   1.620     1.620   0.1% |
  Sum over cells:                     2.604     2.604   0.2% |
Other:                             1106.515  1106.515  86.4% |----------------------------------|
------------------------------------------------------------
Total:                                       1280.019 100.0%

