
  ___ ___ ___ _ _ _  
 |   |   |_  | | | | 
 | | | | | . | | | | 
 |__ |  _|___|_____|  1.1.0
 |___|_|             

User:   meeri@Igor
Date:   Mon Mar  5 13:34:19 2018
Arch:   x86_64
Pid:    20429
Python: 2.7.13
gpaw:   /home/meeri/.local/lib/python2.7/site-packages/gpaw
_gpaw:  /home/meeri/.local/lib/python2.7/site-packages/_gpaw.so
ase:    /home/meeri/.local/lib/python2.7/site-packages/ase (version 3.13.0)
numpy:  /home/meeri/anaconda2/lib/python2.7/site-packages/numpy (version 1.12.1)
scipy:  /home/meeri/anaconda2/lib/python2.7/site-packages/scipy (version 0.19.0)
units:  Angstrom and eV
cores:  1

Memory estimate
---------------
Process memory now: 236.30 MiB
Calculator  56.00 MiB
    Density  22.18 MiB
        Arrays  1.59 MiB
        Localized functions  19.99 MiB
        Mixer  0.61 MiB
    Hamiltonian  3.73 MiB
        Arrays  1.04 MiB
        XC  0.00 MiB
        Poisson  1.18 MiB
        vbar  1.51 MiB
    Wavefunctions  30.09 MiB
        C [qnM]  3.96 MiB
        S, T [2 x qmm]  13.18 MiB
        P [aqMi]  0.49 MiB
        TCI  0.00 MiB
        BasisFunctions  12.46 MiB
        Eigensolver  0.00 MiB

Positions:
  0 Cu    0.0000    0.0000    0.0000
  1 Cu    0.0000    1.8075    1.8075
  2 Cu    1.8075    0.0000    1.8075
  3 Cu    1.8075    1.8075    0.0000

   .--------.  
  /|        |  
 * |        |  
 |Cu        |  
 | .-Cu-----.  
 |/   Cu   /   
 Cu-------*    

Unit Cell:
           Periodic     X           Y           Z      Points  Spacing
  --------------------------------------------------------------------
  1. axis:    yes    3.615000    0.000000    0.000000    20     0.1808
  2. axis:    yes    0.000000    3.615000    0.000000    20     0.1808
  3. axis:    yes    0.000000    0.000000    3.615000    20     0.1808

Cu-setup:
  name   : Copper
  id     : 0f0e166f2a1531348bd10bcfa07bef11
  Z      : 29
  valence: 11
  core   : 18
  charge : 0.0
  file   : /usr/share/gpaw-setups/Cu.LDA.gz
  cutoffs: 1.06(comp), 2.06(filt), 2.43(core), lmax=2
  valence states:
            energy   radius
    4s(1.00)  -4.857   1.164
    4p(0.00)  -0.783   1.164
    3d(10.00)  -5.324   1.058
    *s      22.354   1.164
    *p      26.429   1.164
    *d      21.887   1.058

LCAO basis set for Cu:
  Name: dzp
  Basis set was loaded from file /usr/share/gpaw-setups/Cu.dzp.basis.gz
  Number of radial functions: 5
  Number of spherical harmonics: 15
    l=0, rc=8.9688 Bohr: 4s-sz confined orbital
    l=2, rc=5.1719 Bohr: 3d-sz confined orbital
    l=0, rc=5.3281 Bohr: 4s-dz split-valence wave
    l=2, rc=3.1406 Bohr: 3d-dz split-valence wave
    l=1, rc=8.9688 Bohr: p-type Gaussian polarization

Using the LDA Exchange-Correlation Functional.
Spin-Paired Calculation
Total Charge: 0.000000
Fermi Temperature: 0.100000
Wave functions: LCAO
    Diagonalizer: Serial LAPACK
    Atomic Correction: dense with blas
    Datatype: complex
Eigensolver: LCAO using direct dense diagonalizer
XC and Coulomb potentials evaluated on a 40*40*40 grid
Interpolation: tri-quintic (5. degree polynomial)
Poisson solver: Jacobi solver with 4 multi-grid levels
    Coarsest grid: 5 x 5 x 5 points
    Stencil: 6*3+1=19 point O(h^6) finite-difference Laplacian
    Tolerance: 2.000000e-10
    Max iterations: 1000
Reference Energy: -179804.388190

Total number of cores used: 1

Symmetries present (total): 48

  ( 1  0  0)  ( 1  0  0)  ( 1  0  0)  ( 1  0  0)  ( 1  0  0)  ( 1  0  0)
  ( 0  1  0)  ( 0  1  0)  ( 0  0  1)  ( 0  0  1)  ( 0  0 -1)  ( 0  0 -1)
  ( 0  0  1)  ( 0  0 -1)  ( 0  1  0)  ( 0 -1  0)  ( 0  1  0)  ( 0 -1  0)

  ( 1  0  0)  ( 1  0  0)  ( 0  1  0)  ( 0  1  0)  ( 0  1  0)  ( 0  1  0)
  ( 0 -1  0)  ( 0 -1  0)  ( 1  0  0)  ( 1  0  0)  ( 0  0  1)  ( 0  0  1)
  ( 0  0  1)  ( 0  0 -1)  ( 0  0  1)  ( 0  0 -1)  ( 1  0  0)  (-1  0  0)

  ( 0  1  0)  ( 0  1  0)  ( 0  1  0)  ( 0  1  0)  ( 0  0  1)  ( 0  0  1)
  ( 0  0 -1)  ( 0  0 -1)  (-1  0  0)  (-1  0  0)  ( 1  0  0)  ( 1  0  0)
  ( 1  0  0)  (-1  0  0)  ( 0  0  1)  ( 0  0 -1)  ( 0  1  0)  ( 0 -1  0)

  ( 0  0  1)  ( 0  0  1)  ( 0  0  1)  ( 0  0  1)  ( 0  0  1)  ( 0  0  1)
  ( 0  1  0)  ( 0  1  0)  ( 0 -1  0)  ( 0 -1  0)  (-1  0  0)  (-1  0  0)
  ( 1  0  0)  (-1  0  0)  ( 1  0  0)  (-1  0  0)  ( 0  1  0)  ( 0 -1  0)

  ( 0  0 -1)  ( 0  0 -1)  ( 0  0 -1)  ( 0  0 -1)  ( 0  0 -1)  ( 0  0 -1)
  ( 1  0  0)  ( 1  0  0)  ( 0  1  0)  ( 0  1  0)  ( 0 -1  0)  ( 0 -1  0)
  ( 0  1  0)  ( 0 -1  0)  ( 1  0  0)  (-1  0  0)  ( 1  0  0)  (-1  0  0)

  ( 0  0 -1)  ( 0  0 -1)  ( 0 -1  0)  ( 0 -1  0)  ( 0 -1  0)  ( 0 -1  0)
  (-1  0  0)  (-1  0  0)  ( 1  0  0)  ( 1  0  0)  ( 0  0  1)  ( 0  0  1)
  ( 0  1  0)  ( 0 -1  0)  ( 0  0  1)  ( 0  0 -1)  ( 1  0  0)  (-1  0  0)

  ( 0 -1  0)  ( 0 -1  0)  ( 0 -1  0)  ( 0 -1  0)  (-1  0  0)  (-1  0  0)
  ( 0  0 -1)  ( 0  0 -1)  (-1  0  0)  (-1  0  0)  ( 0  1  0)  ( 0  1  0)
  ( 1  0  0)  (-1  0  0)  ( 0  0  1)  ( 0  0 -1)  ( 0  0  1)  ( 0  0 -1)

  (-1  0  0)  (-1  0  0)  (-1  0  0)  (-1  0  0)  (-1  0  0)  (-1  0  0)
  ( 0  0  1)  ( 0  0  1)  ( 0  0 -1)  ( 0  0 -1)  ( 0 -1  0)  ( 0 -1  0)
  ( 0  1  0)  ( 0 -1  0)  ( 0  1  0)  ( 0 -1  0)  ( 0  0  1)  ( 0  0 -1)

4096 k-points: 16 x 16 x 16 Monkhorst-Pack grid
120 k-points in the Irreducible Part of the Brillouin Zone

          k-points in crystal coordinates                weights
   0:     0.03125000    0.03125000    0.03125000          8/4096
   1:     0.09375000    0.03125000    0.03125000         24/4096
   2:     0.09375000    0.09375000    0.03125000         24/4096
   3:     0.09375000    0.09375000    0.09375000          8/4096
   4:     0.15625000    0.03125000    0.03125000         24/4096
   5:     0.15625000    0.09375000    0.03125000         48/4096
   6:     0.15625000    0.09375000    0.09375000         24/4096
   7:     0.15625000    0.15625000    0.03125000         24/4096
   8:     0.15625000    0.15625000    0.09375000         24/4096
   9:     0.15625000    0.15625000    0.15625000          8/4096
          ...
 119:     0.46875000    0.46875000    0.46875000          8/4096

Mixer Type: Mixer
Linear Mixing Parameter: 0.05
Mixing with 5 Old Densities
Damping of Long Wave Oscillations: 50

Convergence Criteria:
    Total Energy Change: 0.0005 eV / electron
    Integral of Absolute Density Change: 0.0001 electrons
    Integral of Absolute Eigenstate Change: 4e-08 eV^2
Number of Atoms: 4
Number of Atomic Orbitals: 60
Number of Bands in Calculation: 36
Bands to Converge: Occupied States Only
Number of Valence Electrons: 44
                     log10-error:    Total        Iterations:
           Time      WFS    Density  Energy       Fermi  Poisson
iter:   1  13:34:28                 -23.373329    2      11     
iter:   2  13:36:00         -1.11   -21.449620    31     7      
iter:   3  13:37:31         -1.20   -17.981020    27     8      
iter:   4  13:39:02         -1.92   -18.325224    30     7      
iter:   5  13:40:32         -1.73   -17.881453    31     7      
iter:   6  13:42:03         -2.51   -17.877972    3      4      
iter:   7  13:43:40         -2.59   -17.870903    3      5      
iter:   8  13:45:19         -3.27   -17.870487    3      4      
iter:   9  13:46:53         -4.58   -17.870784    2      2      
------------------------------------
Converged After 9 Iterations.

Energy Contributions Relative to Reference Atoms:(reference = -179804.388190)
-------------------------
Kinetic:        -85.656958
Potential:      +73.514847
External:        +0.000000
XC:              -5.847156
Entropy (-ST):   -0.037590
Local:           +0.137278
-------------------------
Free Energy:    -17.889579
Zero Kelvin:    -17.870784

Fermi Level: 7.66615
Warning: Showing only first 10 kpts
 Kpt  Band  Eigenvalues  Occupancy
  0    12      5.85442    0.00391
  0    13      5.85443    0.00391
  0    14      5.85443    0.00391
  0    15      5.97641    0.00391
  0    16      5.97641    0.00391
  0    17      5.97642    0.00391
  0    18      6.01018    0.00391
  0    19      6.01018    0.00391
  0    20      6.01018    0.00391
  0    21      9.71838    0.00000
  0    22      9.71838    0.00000
  0    23      9.71838    0.00000
  0    24     14.90002    0.00000
  0    25     14.90002    0.00000
  0    26     14.90002    0.00000
  0    27     22.00097    0.00000
  0    28     22.00097    0.00000
  0    29     22.00098    0.00000
  0    30     22.47771    0.00000
  0    31     22.47771    0.00000

  1    12      5.81182    0.01172
  1    13      5.81182    0.01172
  1    14      5.84003    0.01172
  1    15      5.84159    0.01172
  1    16      5.84159    0.01172
  1    17      5.93320    0.01172
  1    18      5.97563    0.01172
  1    19      6.00820    0.01172
  1    20      6.00820    0.01172
  1    21      8.79185    0.00000
  1    22      9.87983    0.00000
  1    23      9.87983    0.00000
  1    24     14.95280    0.00000
  1    25     14.95280    0.00000
  1    26     15.72930    0.00000
  1    27     20.89284    0.00000
  1    28     20.89284    0.00000
  1    29     21.93220    0.00000
  1    30     21.93220    0.00000
  1    31     21.94727    0.00000

  2    12      5.71963    0.01172
  2    13      5.74885    0.01172
  2    14      5.74885    0.01172
  2    15      5.78886    0.01172
  2    16      5.83475    0.01172
  2    17      5.83475    0.01172
  2    18      5.97510    0.01172
  2    19      5.97510    0.01172
  2    20      5.98802    0.01172
  2    21      9.01221    0.00000
  2    22      9.01221    0.00000
  2    23     10.03514    0.00000
  2    24     15.00865    0.00000
  2    25     15.79583    0.00000
  2    26     15.79583    0.00000
  2    27     19.62010    0.00000
  2    28     20.87060    0.00000
  2    29     20.87060    0.00000
  2    30     21.95986    0.00000
  2    31     21.95986    0.00000

  3    12      5.65831    0.00391
  3    13      5.65831    0.00391
  3    14      5.65832    0.00391
  3    15      5.75724    0.00391
  3    16      5.75725    0.00391
  3    17      5.75725    0.00391
  3    18      5.97364    0.00391
  3    19      5.97364    0.00391
  3    20      5.97364    0.00391
  3    21      9.21029    0.00000
  3    22      9.21029    0.00000
  3    23      9.21029    0.00000
  3    24     15.86116    0.00000
  3    25     15.86116    0.00000
  3    26     15.86116    0.00000
  3    27     19.59997    0.00000
  3    28     19.59997    0.00000
  3    29     19.59997    0.00000
  3    30     22.42924    0.00000
  3    31     22.42924    0.00000

  4    12      5.57836    0.01172
  4    13      5.57836    0.01172
  4    14      5.76223    0.01172
  4    15      5.76223    0.01172
  4    16      5.80755    0.01172
  4    17      5.84985    0.01172
  4    18      5.91352    0.01172
  4    19      6.00790    0.01172
  4    20      6.00791    0.01172
  4    21      7.78403    0.00276
  4    22     10.22544    0.00000
  4    23     10.22544    0.00000
  4    24     15.04779    0.00000
  4    25     15.04779    0.00000
  4    26     17.04980    0.00000
  4    27     19.69940    0.00000
  4    28     19.69940    0.00000
  4    29     20.95983    0.00000
  4    30     20.95983    0.00000
  4    31     21.94526    0.00000

  5    12      5.49942    0.02344
  5    13      5.50027    0.02344
  5    14      5.64352    0.02344
  5    15      5.72934    0.02344
  5    16      5.76565    0.02344
  5    17      5.79963    0.02344
  5    18      5.91749    0.02344
  5    19      5.97311    0.02344
  5    20      5.97621    0.02344
  5    21      8.02486    0.00063
  5    22      9.40346    0.00000
  5    23     10.36760    0.00000
  5    24     15.10928    0.00000
  5    25     15.91823    0.00000
  5    26     17.12463    0.00000
  5    27     18.37185    0.00000
  5    28     19.70488    0.00000
  5    29     20.90864    0.00000
  5    30     21.02405    0.00000
  5    31     21.97330    0.00000

  6    12      5.43036    0.01172
  6    13      5.43036    0.01172
  6    14      5.54174    0.01172
  6    15      5.69586    0.01172
  6    16      5.70201    0.01172
  6    17      5.70201    0.01172
  6    18      5.94601    0.01172
  6    19      5.96446    0.01172
  6    20      5.96446    0.01172
  6    21      8.23229    0.00004
  6    22      9.57334    0.00000
  6    23      9.57334    0.00000
  6    24     15.98402    0.00000
  6    25     15.98402    0.00000
  6    26     17.19672    0.00000
  6    27     18.37098    0.00000
  6    28     18.37098    0.00000
  6    29     19.65297    0.00000
  6    30     22.09312    0.00000
  6    31     22.09312    0.00000

  7    12      5.34203    0.01172
  7    13      5.36876    0.01172
  7    14      5.36876    0.01172
  7    15      5.67137    0.01172
  7    16      5.74862    0.01172
  7    17      5.74863    0.01172
  7    18      5.91006    0.01172
  7    19      5.91006    0.01172
  7    20      5.94168    0.01172
  7    21      8.42054    0.00001
  7    22      8.42054    0.00001
  7    23     10.67494    0.00000
  7    24     15.22065    0.00000
  7    25     17.10114    0.00000
  7    26     17.26710    0.00000
  7    27     17.26710    0.00000
  7    28     19.77497    0.00000
  7    29     19.77497    0.00000
  7    30     21.15892    0.00000
  7    31     21.15892    0.00000

  8    12      5.30403    0.01172
  8    13      5.30403    0.01172
  8    14      5.32248    0.01172
  8    15      5.62554    0.01172
  8    16      5.64303    0.01172
  8    17      5.64303    0.01172
  8    18      5.94195    0.01172
  8    19      5.94195    0.01172
  8    20      5.94695    0.01172
  8    21      8.59077    0.00000
  8    22      8.59077    0.00000
  8    23      9.89659    0.00000
  8    24     16.11079    0.00000
  8    25     17.11440    0.00000
  8    26     17.33710    0.00000
  8    27     17.33710    0.00000
  8    28     18.44760    0.00000
  8    29     18.44760    0.00000
  8    30     22.31058    0.00000
  8    31     22.31058    0.00000

  9    12      5.15357    0.00391
  9    13      5.28705    0.00391
  9    14      5.28705    0.00391
  9    15      5.54696    0.00391
  9    16      5.54697    0.00391
  9    17      5.54697    0.00391
  9    18      5.94680    0.00391
  9    19      5.94681    0.00391
  9    20      5.94681    0.00391
  9    21      8.90041    0.00000
  9    22      8.90041    0.00000
  9    23      8.90041    0.00000
  9    24     17.20378    0.00000
  9    25     17.20378    0.00000
  9    26     17.20378    0.00000
  9    27     17.48482    0.00000
  9    28     17.48482    0.00000
  9    29     17.48482    0.00000
  9    30     22.93895    0.00000
  9    31     22.93895    0.00000



Dipole Moment: [-1.54903684 -1.54903684 -1.54903684]
