
  ___ ___ ___ _ _ _  
 |   |   |_  | | | | 
 | | | | | . | | | | 
 |__ |  _|___|_____|  1.2.0
 |___|_|             

User:   user@ubuntu
Date:   Sat Mar 24 07:16:07 2018
Arch:   x86_64
Pid:    10857
Python: 3.6.3
gpaw:   /usr/lib/python3/dist-packages/gpaw
_gpaw:  /usr/lib/python3/dist-packages/_gpaw.cpython-36m-x86_64-linux-gnu.so
ase:    /home/user/.local/lib/python3.6/site-packages/ase (version 3.15.0)
numpy:  /home/user/.local/lib/python3.6/site-packages/numpy (version 1.14.2)
scipy:  /home/user/.local/lib/python3.6/site-packages/scipy (version 1.0.0)
units:  Angstrom and eV
cores:  1

Input parameters:
  basis: dzp
  h: 0.3
  mode: lcao
  xc: PBE

System changes: positions, numbers, cell, pbc, initial_charges, initial_magmoms 

Initialize ...

Na-setup:
  name: Sodium
  id: d7ecbc49209718622bcbe287195dca2a
  Z: 11
  valence: 7
  core: 4
  charge: 0.0
  file: /usr/share/gpaw-setups/Na.PBE.gz
  cutoffs: 1.18(comp), 2.17(filt), 2.59(core), lmax=2
  valence states:
                energy  radius
    3s(1.00)    -2.744   1.201
    2p(6.00)   -28.672   1.217
    3p(0.00)    -0.743   1.217
    *s          24.468   1.201
    *d           0.000   1.238

  LCAO basis set for Na:
    Name: dzp
    File: /usr/share/gpaw-setups/Na.dzp.basis.gz
    Number of radial functions: 7
    Number of spherical harmonics: 17
      l=0, rc=11.4062 Bohr: 3s-sz confined orbital
      l=1, rc=3.6719 Bohr: 2p-sz confined orbital
      l=1, rc=15.9375 Bohr: 3p-sz confined orbital
      l=0, rc=6.9531 Bohr: 3s-dz split-valence wave
      l=1, rc=2.4219 Bohr: 2p-dz split-valence wave
      l=1, rc=10.0469 Bohr: 3p-dz split-valence wave
      l=1, rc=11.4062 Bohr: p-type Gaussian polarization

Cl-setup:
  name: Chlorine
  id: 726897f06f34e53cf8e33b5885a02604
  Z: 17
  valence: 7
  core: 10
  charge: 0.0
  file: /usr/share/gpaw-setups/Cl.PBE.gz
  cutoffs: 0.79(comp), 1.40(filt), 1.49(core), lmax=2
  valence states:
                energy  radius
    3s(2.00)   -20.689   0.794
    3p(5.00)    -8.594   0.794
    *s           6.523   0.794
    *p          18.617   0.794
    *d           0.000   0.794

  LCAO basis set for Cl:
    Name: dzp
    File: /usr/share/gpaw-setups/Cl.dzp.basis.gz
    Number of radial functions: 5
    Number of spherical harmonics: 13
      l=0, rc=5.1719 Bohr: 3s-sz confined orbital
      l=1, rc=6.2656 Bohr: 3p-sz confined orbital
      l=0, rc=2.8281 Bohr: 3s-dz split-valence wave
      l=1, rc=3.5156 Bohr: 3p-dz split-valence wave
      l=2, rc=6.2656 Bohr: d-type Gaussian polarization

Reference energy: -16973.559893

Spin-paired calculation

Occupation numbers:
  Fermi-Dirac: width=0.0000 eV

Convergence criteria:
  Maximum total energy change: 0.0005 eV / electron
  Maximum integral of absolute density change: 0.0001 electrons
  Maximum integral of absolute eigenstate change: 4e-08 eV^2
  Maximum number of iterations: 333

Symmetries present (total): 1

  ( 1  0  0)
  ( 0  1  0)
  ( 0  0  1)

1 k-point (Gamma)
1 k-point in the irreducible part of the Brillouin zone
       k-points in crystal coordinates                weights
   0:     0.00000000    0.00000000    0.00000000          1/1

Wave functions: LCAO
  Diagonalizer: Serial LAPACK
  Atomic Correction: dense with blas
  Datatype: float
  Eigensolver: None 

LCAO using direct dense diagonalizer 

Densities:
  Coarse grid: 32*32*44 grid
  Fine grid: 64*64*88 grid
  Total Charge: 0.000000 

Density mixing:
  Method: separate
  Backend: pulay
  Linear mixing parameter: 0.25
  Mixing with 3 old densities
  No damping of long wave oscillations 

Hamiltonian:
  XC and Coulomb potentials evaluated on a 64*64*88 grid
  Using the PBE Exchange-Correlation functional
  Interpolation: tri-quintic (5. degree polynomial)
  Poisson solver: Jacobi solver with 4 multi-grid levels
    Coarsest grid: 8 x 8 x 11 points
    Stencil: 6*3+1=19 point O(h^6) finite-difference Laplacian
    Tolerance: 2.000000e-10
    Max iterations: 1000 

Memory estimate:
  Process memory now: 1994.69 MiB
  Calculator: 28.08 MiB
    Density: 12.00 MiB
      Arrays: 8.53 MiB
      Localized functions: 1.58 MiB
      Mixer: 1.89 MiB
    Hamiltonian: 12.08 MiB
      Arrays: 5.58 MiB
      XC: 0.00 MiB
      Poisson: 6.38 MiB
      vbar: 0.12 MiB
    Wavefunctions: 4.00 MiB
      C [qnM]: 0.00 MiB
      S, T [2 x qmm]: 0.01 MiB
      P [aqMi]: 0.00 MiB
      TCI: 0.00 MiB
      BasisFunctions: 3.98 MiB
      Eigensolver: 0.00 MiB

Total number of cores used: 1

Number of atoms: 2
Number of atomic orbitals: 30
Number of bands in calculation: 11
Bands to converge: occupied states only
Number of valence electrons: 14

... initialized

Initializing position-dependent things.

Density initialized from atomic densities
       .------------------------.  
      /|                        |  
     / |                        |  
    /  |                        |  
   /   |                        |  
  /    |                        |  
 *     |                        |  
 |     |                        |  
 |     |                        |  
 |     |         Cl             |  
 |     |                        |  
 |     |                        |  
 |     |                        |  
 |     |         Na             |  
 |     |                        |  
 |     |                        |  
 |     .------------------------.  
 |    /                        /   
 |   /                        /    
 |  /                        /     
 | /                        /      
 |/                        /       
 *------------------------*        

Positions:
   0 Na     5.000000    5.000000    5.000000
   1 Cl     5.000000    5.000000    7.820000

Unit cell:
           periodic     x           y           z      points  spacing
  1. axis:    no    10.000000    0.000000    0.000000    32     0.3125
  2. axis:    no     0.000000   10.000000    0.000000    32     0.3125
  3. axis:    no     0.000000    0.000000   12.820000    44     0.2914

                     log10-error:    total        iterations:
           time      wfs    density  energy       fermi  poisson
iter:   1  07:16:10          +inf    -4.211122    0      16     
iter:   2  07:16:11         -0.96    -3.358454    0      8      
iter:   3  07:16:12         -1.12    -3.035032    0      8      
iter:   4  07:16:13         -1.28    -2.970279    0      8      
iter:   5  07:16:13         -1.65    -2.926745    0      7      
iter:   6  07:16:14         -2.31    -2.925229    0      5      
iter:   7  07:16:15         -2.65    -2.925290    0      5      
iter:   8  07:16:15         -2.93    -2.925093    0      3      
iter:   9  07:16:16         -3.21    -2.925109    0      3      
iter:  10  07:16:17         -3.33    -2.925105    0      4      
iter:  11  07:16:17         -4.06    -2.925021    0      1      

Converged after 11 iterations.

Dipole moment: (-0.000000, -0.000000, -1.959702) |e|*Ang

Energy contributions relative to reference atoms: (reference = -16973.559893)

Kinetic:         +5.001106
Potential:       -3.667592
External:        +0.000000
XC:              -5.213761
Entropy (-ST):   +0.000000
Local:           +0.955226
--------------------------
Free energy:     -2.925021
Extrapolated:    -2.925021

Fermi level: -3.45383

 Band  Eigenvalues  Occupancy
    0    -29.91873    2.00000
    1    -29.91873    2.00000
    2    -29.84084    2.00000
    3    -16.17048    2.00000
    4     -5.02659    2.00000
    5     -4.38050    2.00000
    6     -4.38050    2.00000
    7     -2.52716    0.00000
    8     -0.32283    0.00000
    9     -0.32283    0.00000
   10      0.61336    0.00000

Writing to NaCl-PBE.gpw (mode='all')

Timing:                              incl.     excl.
-----------------------------------------------------------
Basic WFS set positions:             0.000     0.000   0.0% |
Basis functions set positions:       0.008     0.008   0.0% |
LCAO WFS Initialize:                 1.312     0.014   0.0% |
 Hamiltonian:                        1.298     0.000   0.0% |
  Atomic:                            0.127     0.001   0.0% |
   XC Correction:                    0.126     0.126   0.0% |
  Calculate atomic Hamiltonians:     0.001     0.001   0.0% |
  Communicate:                       0.000     0.000   0.0% |
  Hartree integrate/restrict:        0.006     0.006   0.0% |
  Initialize Hamiltonian:            0.003     0.003   0.0% |
  Poisson:                           0.875     0.875   0.3% |
  XC 3D grid:                        0.284     0.284   0.1% |
  vbar:                              0.002     0.002   0.0% |
SCF-cycle:                           7.168     0.003   0.0% |
 Density:                            0.182     0.000   0.0% |
  Atomic density matrices:           0.006     0.006   0.0% |
  Mix:                               0.098     0.098   0.0% |
  Multipole moments:                 0.002     0.002   0.0% |
  Normalize:                         0.001     0.001   0.0% |
  Pseudo density:                    0.074     0.001   0.0% |
   Calculate density matrix:         0.000     0.000   0.0% |
   Construct density:                0.072     0.072   0.0% |
   Symmetrize density:               0.000     0.000   0.0% |
 Hamiltonian:                        6.893     0.001   0.0% |
  Atomic:                            1.246     0.010   0.0% |
   XC Correction:                    1.236     1.236   0.4% |
  Calculate atomic Hamiltonians:     0.010     0.010   0.0% |
  Communicate:                       0.000     0.000   0.0% |
  Hartree integrate/restrict:        0.056     0.056   0.0% |
  Poisson:                           2.798     2.798   0.9% |
  XC 3D grid:                        2.770     2.770   0.9% |
  vbar:                              0.012     0.012   0.0% |
 LCAO eigensolver:                   0.091     0.001   0.0% |
  Calculate projections:             0.000     0.000   0.0% |
  DenseAtomicCorrection:             0.002     0.002   0.0% |
  Distribute overlap matrix:         0.000     0.000   0.0% |
  Orbital Layouts:                   0.004     0.004   0.0% |
  Potential matrix:                  0.084     0.084   0.0% |
Set symmetry:                        0.000     0.000   0.0% |
TCI: Calculate S, T, P:              0.016     0.016   0.0% |
TCI: Evaluate splines:               0.615     0.615   0.2% |
Other:                             287.995   287.995  96.9% |--------------------------------------|
-----------------------------------------------------------
Total:                                       297.115 100.0%

Memory usage: 1.95 GiB
Date: Sat Mar 24 07:21:04 2018

